LIGGGHTS data file

 29700 atoms

 2 atom types

 -0.000239763 0.0142758 xlo xhi
 -0.000239776 0.0142757 ylo yhi
 -0.000239797 0.0157278 zlo zhi

Atoms

1 1 0.00011 2650.0 4.36322e-06 -6.55056e-06 -7.26072e-06
2 1 0.00011 2650.0 0.000500274 4.83761e-06 6.95906e-06
3 1 0.00011 2650.0 0.000950568 -1.33476e-05 1.58694e-06
4 1 0.000293334 2650.0 0.00143327 -2.75596e-06 1.26142e-05
5 1 0.000293334 2650.0 0.0019245 -6.89986e-06 -1.71349e-05
6 1 0.0001833334 2650.0 0.0024047 -1.03275e-05 -6.85271e-06
7 1 0.0001833334 2650.0 0.00288733 1.88618e-05 1.28243e-05
8 1 0.00011 2650.0 0.00338278 3.73771e-06 1.41523e-05
9 1 0.00011 2650.0 0.00385322 -8.12915e-06 -6.64271e-06
10 1 0.0001466666 2650.0 0.0043443 -8.79287e-08 -1.26149e-05
11 1 0.00022 2650.0 0.00483935 8.24953e-06 1.03009e-05
12 1 0.00011 2650.0 0.00531956 4.46531e-06 6.43643e-06
13 1 0.0001466666 2650.0 0.0057978 -7.30869e-06 1.98039e-06
14 1 0.00011 2650.0 0.00627288 1.81842e-05 -1.12861e-05
15 1 0.00011 2650.0 0.00677372 1.28411e-05 2.48209e-07
16 1 0.00011 2650.0 0.00727366 -1.35488e-05 -1.4785e-05
17 1 0.0001833334 2650.0 0.0077423 9.67785e-06 1.83957e-05
18 1 0.0001466666 2650.0 0.00824739 -4.2528e-06 1.23693e-06
19 1 0.000293334 2650.0 0.00871109 -6.10753e-06 -6.10152e-06
20 1 0.0001466666 2650.0 0.00921179 -1.87701e-05 -1.48259e-05
21 1 0.0001466666 2650.0 0.00966354 5.32837e-06 1.82521e-05
22 1 0.00022 2650.0 0.010145 1.16062e-05 -4.98814e-06
23 1 0.00022 2650.0 0.0106455 1.13515e-06 -8.69921e-06
24 1 0.00022 2650.0 0.0111276 -1.37227e-05 -7.00731e-06
25 1 0.0001466666 2650.0 0.0116145 5.50668e-06 5.58891e-06
26 1 0.00011 2650.0 0.0121016 -1.15082e-05 -1.17999e-05
27 1 0.000256666 2650.0 0.0125805 -3.86267e-06 -1.54937e-05
28 1 0.0001466666 2650.0 0.0130748 1.29436e-05 -1.87351e-05
29 1 0.0001833334 2650.0 0.0135705 -1.76556e-05 -1.57039e-05
30 1 0.00022 2650.0 0.0140345 1.90488e-05 -1.34262e-05
31 1 0.00011 2650.0 -1.25333e-05 0.000468504 1.49217e-05
32 1 0.00011 2650.0 0.000486278 0.000475535 1.3927e-05
33 1 0.0001466666 2650.0 0.000963432 0.000494906 -1.93921e-05
34 1 0.00011 2650.0 0.00143626 0.000482499 -2.28384e-06
35 1 0.00011 2650.0 0.00192397 0.000481636 -1.59903e-05
36 1 0.00022 2650.0 0.00243607 0.000464777 -1.79102e-05
37 1 0.000293334 2650.0 0.00288707 0.000486975 1.83424e-05
38 1 0.00011 2650.0 0.00338299 0.000498198 3.36816e-06
39 1 0.000293334 2650.0 0.00385261 0.000480755 -5.901e-06
40 1 0.0001833334 2650.0 0.00433625 0.000495232 -3.46027e-06
41 1 0.000256666 2650.0 0.0048557 0.000496163 4.60252e-06
42 1 0.00022 2650.0 0.00533975 0.000473867 1.72235e-05
43 1 0.000293334 2650.0 0.00580729 0.000488868 -2.80827e-07
44 1 0.00022 2650.0 0.00628454 0.000472067 9.23765e-06
45 1 0.00011 2650.0 0.00676162 0.000500601 -5.42071e-06
46 1 0.0001466666 2650.0 0.00727373 0.000501263 -1.14544e-05
47 1 0.00011 2650.0 0.00772477 0.000494177 1.17054e-05
48 1 0.0001833334 2650.0 0.00822853 0.000488549 -1.72985e-05
49 1 0.0001466666 2650.0 0.0087189 0.000497649 -1.11718e-05
50 1 0.00022 2650.0 0.00921408 0.000476781 1.27644e-05
51 1 0.0001833334 2650.0 0.00969789 0.000502662 -1.6532e-05
52 1 0.0001466666 2650.0 0.0101442 0.000495176 1.81926e-05
53 1 0.00011 2650.0 0.0106595 0.000469687 1.55922e-05
54 1 0.0001466666 2650.0 0.0111166 0.000472955 1.01744e-05
55 1 0.00011 2650.0 0.0116237 0.00047201 8.07359e-06
56 1 0.0001833334 2650.0 0.0120837 0.000497116 -5.57302e-06
57 1 0.0001833334 2650.0 0.0125723 0.000500578 2.41749e-06
58 1 0.00022 2650.0 0.0130691 0.000497884 1.90425e-05
59 1 0.0001466666 2650.0 0.0135513 0.000475871 -1.22991e-05
60 1 0.00011 2650.0 0.0140363 0.000501624 -5.62781e-06
61 1 0.00011 2650.0 1.77725e-05 0.000967375 -1.39062e-05
62 1 0.00011 2650.0 0.000481143 0.000978853 3.26669e-06
63 1 0.00011 2650.0 0.000985664 0.00096591 4.01853e-06
64 1 0.0001833334 2650.0 0.00143385 0.000957343 6.208e-06
65 1 0.0001833334 2650.0 0.00192788 0.000961057 1.13741e-05
66 1 0.00011 2650.0 0.00243612 0.000972805 1.33796e-05
67 1 0.0001466666 2650.0 0.00288595 0.000961978 2.87573e-06
68 1 0.00011 2650.0 0.00336869 0.000985479 1.41077e-05
69 1 0.000366666 2650.0 0.00385508 0.000984483 -1.66144e-05
70 1 0.00011 2650.0 0.00433708 0.000987658 1.38904e-05
71 1 0.000256666 2650.0 0.00485401 0.000949455 6.90655e-06
72 1 0.00011 2650.0 0.00533481 0.000962843 3.08712e-06
73 1 0.00022 2650.0 0.00581714 0.000948334 -1.95882e-05
74 1 0.0001833334 2650.0 0.00630747 0.000959603 9.22672e-06
75 1 0.00011 2650.0 0.00677586 0.00098183 -3.50338e-06
76 1 0.000256666 2650.0 0.00726384 0.000984363 -1.50646e-05
77 1 0.00011 2650.0 0.00775552 0.000951278 -1.33211e-05
78 1 0.00011 2650.0 0.00823783 0.000963965 1.59194e-05
79 1 0.00011 2650.0 0.00869263 0.000975706 -8.718e-06
80 1 0.00011 2650.0 0.00919263 0.000953601 -3.66434e-07
81 1 0.0001466666 2650.0 0.00969894 0.000969593 -1.05299e-06
82 1 0.00011 2650.0 0.0101676 0.00097358 1.41499e-05
83 1 0.000293334 2650.0 0.010667 0.000979763 1.94183e-05
84 1 0.00022 2650.0 0.011113 0.00094988 1.35264e-05
85 1 0.0001833334 2650.0 0.0116109 0.000962357 7.89645e-06
86 1 0.0001466666 2650.0 0.0121159 0.000968833 -1.96316e-05
87 1 0.00011 2650.0 0.0125829 0.000971066 3.35771e-06
88 1 0.0001833334 2650.0 0.013071 0.000949187 -1.62094e-05
89 1 0.0001466666 2650.0 0.013568 0.000951629 -7.47416e-06
90 1 0.0001833334 2650.0 0.0140289 0.000964212 6.10948e-06
91 1 0.00011 2650.0 -6.96723e-07 0.00146379 9.11124e-06
92 1 0.0001833334 2650.0 0.000483487 0.00146921 2.68519e-06
93 1 0.000293334 2650.0 0.000954028 0.00145846 3.16468e-06
94 1 0.0001466666 2650.0 0.00145805 0.00145815 -1.53167e-06
95 1 0.000366666 2650.0 0.00193323 0.00145814 -1.50851e-05
96 1 0.00011 2650.0 0.00240361 0.00145781 -1.49856e-05
97 1 0.0001833334 2650.0 0.00289626 0.00146813 6.77855e-06
98 1 0.00022 2650.0 0.00338595 0.00145983 -1.44433e-05
99 1 0.00022 2650.0 0.0038721 0.0014487 2.10864e-06
100 1 0.00022 2650.0 0.00435395 0.00145485 2.21699e-06
101 1 0.0001466666 2650.0 0.00483733 0.00143433 7.48996e-07
102 1 0.00011 2650.0 0.00531957 0.00144214 1.79498e-06
103 1 0.0001833334 2650.0 0.00580103 0.00144865 -1.47087e-05
104 1 0.00011 2650.0 0.00630636 0.00146059 -4.6807e-06
105 1 0.0001833334 2650.0 0.00679268 0.00145487 1.82484e-05
106 1 0.0001466666 2650.0 0.00725945 0.00146226 -1.21661e-05
107 1 0.00011 2650.0 0.00776306 0.00143238 -9.51506e-06
108 1 0.0001466666 2650.0 0.00821322 0.00145192 -1.92041e-05
109 1 0.0001833334 2650.0 0.00872878 0.00144866 -1.31378e-05
110 1 0.0001833334 2650.0 0.00919842 0.00146217 3.53382e-06
111 1 0.00011 2650.0 0.00967299 0.00145964 9.98768e-07
112 1 0.0001833334 2650.0 0.0101599 0.00144533 7.81088e-06
113 1 0.000256666 2650.0 0.0106514 0.00143578 -1.07488e-05
114 1 0.0001833334 2650.0 0.0111328 0.00144628 -1.1336e-05
115 1 0.0001466666 2650.0 0.0116077 0.00144403 -1.16423e-05
116 1 0.0001466666 2650.0 0.0120914 0.00144406 1.46301e-05
117 1 0.0001466666 2650.0 0.0125952 0.00143466 3.62309e-06
118 1 0.000293334 2650.0 0.0130565 0.0014477 1.88169e-05
119 1 0.0001466666 2650.0 0.0135617 0.00143628 1.6445e-05
120 1 0.00044 2650.0 0.0140198 0.00146977 1.4307e-05
121 1 0.0001466666 2650.0 6.40177e-06 0.00193732 -2.60935e-06
122 1 0.0001466666 2650.0 0.000465775 0.00192917 -1.88064e-05
123 1 0.00011 2650.0 0.000976794 0.00194799 -1.11185e-05
124 1 0.00011 2650.0 0.00145501 0.00193155 -7.92474e-06
125 1 0.0001466666 2650.0 0.00191973 0.00194532 -1.21235e-05
126 1 0.00011 2650.0 0.00240198 0.00192897 -1.4017e-05
127 1 0.000293334 2650.0 0.00289998 0.00191823 5.57924e-06
128 1 0.00022 2650.0 0.00338556 0.0019495 1.80146e-05
129 1 0.00022 2650.0 0.00386163 0.00192653 4.92841e-06
130 1 0.0001466666 2650.0 0.00434467 0.00195544 1.4487e-05
131 1 0.0001466666 2650.0 0.00482202 0.00193014 1.05818e-06
132 1 0.00011 2650.0 0.00532846 0.00193933 -3.88643e-06
133 1 0.00022 2650.0 0.00578921 0.00192618 1.53308e-05
134 1 0.0001466666 2650.0 0.00627881 0.00193092 -1.4257e-05
135 1 0.00011 2650.0 0.0067784 0.00192725 4.97837e-06
136 1 0.000403334 2650.0 0.00725673 0.00192794 -8.9761e-06
137 1 0.0001466666 2650.0 0.00775868 0.00192133 -8.16829e-06
138 1 0.00011 2650.0 0.00823677 0.00193009 8.59757e-06
139 1 0.0001466666 2650.0 0.0087109 0.00191766 1.89916e-05
140 1 0.00022 2650.0 0.00921146 0.00193528 -5.28999e-07
141 1 0.00011 2650.0 0.00969911 0.00193066 1.39403e-05
142 1 0.00011 2650.0 0.0101462 0.00195157 2.26848e-06
143 1 0.0001466666 2650.0 0.0106396 0.00194077 -1.45621e-05
144 1 0.000256666 2650.0 0.0111146 0.00192987 3.39694e-06
145 1 0.00011 2650.0 0.0116052 0.00194465 1.52257e-05
146 1 0.00011 2650.0 0.0121034 0.00192161 -5.03937e-06
147 1 0.0001466666 2650.0 0.0125917 0.00192072 1.26164e-05
148 1 0.000293334 2650.0 0.0130535 0.0019432 7.62822e-06
149 1 0.0001833334 2650.0 0.0135347 0.00191635 7.41084e-06
150 1 0.00011 2650.0 0.014048 0.00193023 -1.5138e-05
151 1 0.00011 2650.0 6.20055e-06 0.00240536 1.74558e-05
152 1 0.0001466666 2650.0 0.000466752 0.0024373 1.65632e-05
153 1 0.00011 2650.0 0.000957054 0.00243517 -1.37922e-05
154 1 0.0001833334 2650.0 0.00146491 0.00241932 2.41031e-06
155 1 0.00011 2650.0 0.00193529 0.00240225 1.68436e-05
156 1 0.0001466666 2650.0 0.0024098 0.0024183 -2.3358e-06
157 1 0.00011 2650.0 0.00288987 0.00241681 1.34976e-05
158 1 0.00011 2650.0 0.00337386 0.00240156 1.13675e-05
159 1 0.00033 2650.0 0.00385594 0.00240304 -1.81892e-05
160 1 0.0001466666 2650.0 0.00436176 0.00241349 1.42565e-05
161 1 0.0001466666 2650.0 0.00482909 0.00242558 -3.67118e-06
162 1 0.00022 2650.0 0.00531928 0.00242606 -5.71273e-06
163 1 0.0001466666 2650.0 0.00582415 0.00243245 1.15867e-05
164 1 0.0001833334 2650.0 0.00627751 0.00242452 1.79777e-05
165 1 0.00011 2650.0 0.00677884 0.00241352 1.43444e-06
166 1 0.00011 2650.0 0.00725227 0.00241552 -1.74406e-05
167 1 0.0001466666 2650.0 0.00773831 0.00242444 5.67169e-06
168 1 0.0001833334 2650.0 0.00823495 0.00240402 -1.13621e-05
169 1 0.00011 2650.0 0.00870015 0.00242792 1.0934e-05
170 1 0.00011 2650.0 0.00917985 0.00243919 -1.54056e-05
171 1 0.0001466666 2650.0 0.00966336 0.00240914 -1.75554e-05
172 1 0.0001833334 2650.0 0.0101703 0.00240678 7.50553e-06
173 1 0.00011 2650.0 0.0106674 0.00243199 -5.28665e-06
174 1 0.0001833334 2650.0 0.0111417 0.00242611 4.59782e-06
175 1 0.0001833334 2650.0 0.0116319 0.0024326 -3.93441e-06
176 1 0.00011 2650.0 0.0121064 0.00243597 9.77582e-06
177 1 0.00011 2650.0 0.0125858 0.00242084 1.90333e-05
178 1 0.00033 2650.0 0.0130719 0.00243485 1.74497e-05
179 1 0.0001466666 2650.0 0.0135514 0.00241989 -1.23231e-05
180 1 0.0001466666 2650.0 0.0140301 0.0024156 1.41841e-05
181 1 0.00022 2650.0 2.6675e-07 0.00291244 2.65318e-06
182 1 0.000293334 2650.0 0.000486401 0.00290231 -1.95069e-05
183 1 0.0001833334 2650.0 0.000964025 0.00289725 1.8641e-05
184 1 0.0001466666 2650.0 0.00143685 0.00290571 3.81821e-06
185 1 0.00011 2650.0 0.0019171 0.00289175 1.41734e-05
186 1 0.00011 2650.0 0.00243808 0.00291695 -2.64832e-06
187 1 0.000256666 2650.0 0.00290407 0.00289927 -1.55587e-05
188 1 0.00022 2650.0 0.00337149 0.00290372 -1.36997e-05
189 1 0.00022 2650.0 0.00385536 0.00291932 3.66088e-06
190 1 0.000256666 2650.0 0.00434607 0.00289516 9.68036e-06
191 1 0.0001833334 2650.0 0.00482145 0.00290857 1.0967e-05
192 1 0.00011 2650.0 0.00530789 0.00292005 7.49515e-07
193 1 0.0001833334 2650.0 0.00581232 0.00291483 9.89768e-06
194 1 0.00011 2650.0 0.0062827 0.00289362 -1.85073e-05
195 1 0.00011 2650.0 0.00678193 0.00292359 1.36049e-05
196 1 0.0001833334 2650.0 0.00726766 0.00290539 1.85528e-05
197 1 0.00011 2650.0 0.00775002 0.00290488 -1.60791e-05
198 1 0.000293334 2650.0 0.00821768 0.00290498 1.3198e-06
199 1 0.0001833334 2650.0 0.00871795 0.00288631 -1.4288e-05
200 1 0.000256666 2650.0 0.00919191 0.00291162 1.21914e-05
201 1 0.00011 2650.0 0.0096909 0.00291567 -1.16299e-05
202 1 0.0001833334 2650.0 0.0101653 0.0029182 1.69709e-05
203 1 0.0001466666 2650.0 0.0106397 0.00290831 -1.30467e-05
204 1 0.0001833334 2650.0 0.0111211 0.00289471 -7.46995e-06
205 1 0.00022 2650.0 0.0116006 0.00289549 -9.78488e-06
206 1 0.00011 2650.0 0.0121043 0.00291288 8.12911e-06
207 1 0.00011 2650.0 0.01259 0.00288478 -6.74388e-06
208 1 0.0001466666 2650.0 0.0130589 0.00289689 2.59337e-06
209 1 0.00011 2650.0 0.0135392 0.00291061 9.41865e-07
210 1 0.0001833334 2650.0 0.0140259 0.00288612 1.52832e-05
211 1 0.0001833334 2650.0 1.92733e-05 0.00338594 -6.81493e-06
212 1 0.000256666 2650.0 0.000468663 0.00336911 1.19468e-05
213 1 0.0001833334 2650.0 0.000986558 0.00340708 1.38392e-05
214 1 0.0001833334 2650.0 0.00143647 0.00339947 -1.11995e-05
215 1 0.000293334 2650.0 0.00192564 0.00337742 1.97236e-05
216 1 0.0001466666 2650.0 0.00242329 0.00339561 -1.10153e-05
217 1 0.00011 2650.0 0.00290011 0.00340408 9.36437e-06
218 1 0.00022 2650.0 0.00340453 0.00337887 -1.14346e-05
219 1 0.0001466666 2650.0 0.00386871 0.00337192 -9.09231e-06
220 1 0.000403334 2650.0 0.004358 0.00337259 3.44028e-06
221 1 0.0001466666 2650.0 0.00484479 0.00337708 -1.71656e-05
222 1 0.00022 2650.0 0.00530713 0.00337023 3.51965e-06
223 1 0.00011 2650.0 0.00580027 0.00337657 -1.73375e-06
224 1 0.00011 2650.0 0.00629844 0.00340153 1.46794e-05
225 1 0.00011 2650.0 0.00678529 0.00337485 -5.91359e-06
226 1 0.00011 2650.0 0.00726626 0.003374 -1.48292e-05
227 1 0.0001466666 2650.0 0.0077519 0.00338474 1.44922e-05
228 1 0.000293334 2650.0 0.00821834 0.00337726 -1.17654e-05
229 1 0.0001466666 2650.0 0.00869354 0.00338616 1.26403e-05
230 1 0.00033 2650.0 0.00918745 0.00339241 -1.36913e-05
231 1 0.000256666 2650.0 0.00968541 0.00337643 1.05018e-05
232 1 0.000293334 2650.0 0.0101712 0.00338164 -1.85697e-05
233 1 0.00022 2650.0 0.0106347 0.00340261 -1.11663e-05
234 1 0.000293334 2650.0 0.0111241 0.0033752 -1.66138e-05
235 1 0.0001833334 2650.0 0.0116071 0.00339147 -1.22003e-05
236 1 0.0001466666 2650.0 0.0120986 0.00337386 3.51809e-06
237 1 0.0001466666 2650.0 0.0125897 0.00338611 4.23486e-06
238 1 0.0001833334 2650.0 0.013082 0.00340008 1.14872e-05
239 1 0.00022 2650.0 0.0135674 0.00337648 1.65544e-05
240 1 0.000293334 2650.0 0.0140368 0.00339483 -1.51734e-05
241 1 0.0001466666 2650.0 4.21255e-06 0.00386746 1.34227e-05
242 1 0.0001466666 2650.0 0.000478335 0.00385799 1.09075e-05
243 1 0.0001833334 2650.0 0.000982338 0.00388729 -1.93354e-05
244 1 0.0001466666 2650.0 0.00143896 0.00386748 5.71758e-06
245 1 0.00033 2650.0 0.00192214 0.00387075 2.36067e-06
246 1 0.0001833334 2650.0 0.00241661 0.00385765 9.3675e-06
247 1 0.0001833334 2650.0 0.00289393 0.00389158 -7.83547e-06
248 1 0.0001833334 2650.0 0.00340685 0.00388714 -1.01986e-05
249 1 0.00011 2650.0 0.00385259 0.00388029 -1.89404e-06
250 1 0.0001466666 2650.0 0.00436131 0.00387518 1.71313e-05
251 1 0.0001833334 2650.0 0.00483381 0.00387851 -1.38188e-05
252 1 0.0001466666 2650.0 0.00532603 0.0038663 -1.97968e-05
253 1 0.00011 2650.0 0.00580207 0.00386697 -1.94926e-05
254 1 0.00011 2650.0 0.00629145 0.00388676 1.83343e-05
255 1 0.0001466666 2650.0 0.00679378 0.00385321 -4.95271e-08
256 1 0.0001466666 2650.0 0.00725919 0.00386188 5.33981e-06
257 1 0.000256666 2650.0 0.00775658 0.00386179 1.93023e-05
258 1 0.0001833334 2650.0 0.00823824 0.00385248 -1.74124e-05
259 1 0.0001466666 2650.0 0.00870544 0.00386628 -1.93894e-05
260 1 0.0001466666 2650.0 0.00918734 0.00388762 -1.258e-05
261 1 0.000256666 2650.0 0.00967316 0.00387774 -3.36228e-06
262 1 0.0001466666 2650.0 0.0101634 0.00387378 3.82501e-06
263 1 0.0001466666 2650.0 0.0106642 0.00386634 -6.31006e-06
264 1 0.000256666 2650.0 0.0111276 0.00388794 6.1679e-06
265 1 0.0001466666 2650.0 0.0116071 0.00388829 1.21019e-05
266 1 0.00022 2650.0 0.0121105 0.00385855 5.74899e-06
267 1 0.0001466666 2650.0 0.0125833 0.00388924 -4.81369e-06
268 1 0.00033 2650.0 0.0130671 0.00385596 -1.44543e-05
269 1 0.00022 2650.0 0.0135652 0.00388982 4.47876e-06
270 1 0.0001466666 2650.0 0.014031 0.00388761 1.30071e-05
271 1 0.000256666 2650.0 1.81039e-05 0.00434239 -1.84992e-05
272 1 0.0001466666 2650.0 0.000467048 0.00437362 -7.30496e-06
273 1 0.00022 2650.0 0.000953462 0.00434696 4.92623e-06
274 1 0.0001466666 2650.0 0.00144356 0.004358 1.51187e-05
275 1 0.00022 2650.0 0.00192356 0.00437089 -1.05095e-07
276 1 0.00011 2650.0 0.00243566 0.00437521 6.6056e-06
277 1 0.0001466666 2650.0 0.00288594 0.00434134 1.58943e-05
278 1 0.0001466666 2650.0 0.0033815 0.00434007 -8.37404e-06
279 1 0.0001833334 2650.0 0.00386782 0.00436026 9.08308e-06
280 1 0.000256666 2650.0 0.00435731 0.00435332 2.16772e-06
281 1 0.0001466666 2650.0 0.00484088 0.00434857 3.291e-07
282 1 0.00011 2650.0 0.00531118 0.00435503 1.67908e-05
283 1 0.0001833334 2650.0 0.00582177 0.00435271 9.76258e-06
284 1 0.00011 2650.0 0.00630887 0.00435801 -5.74897e-06
285 1 0.0001833334 2650.0 0.00677704 0.00433816 1.52613e-06
286 1 0.00011 2650.0 0.00724881 0.00435729 -1.05833e-05
287 1 0.00011 2650.0 0.00775309 0.00435133 -1.36396e-05
288 1 0.00011 2650.0 0.00823201 0.00436893 -7.86098e-06
289 1 0.0001466666 2650.0 0.00869809 0.00436773 -1.91321e-05
290 1 0.0001833334 2650.0 0.00919422 0.00435945 -1.29353e-06
291 1 0.000256666 2650.0 0.00968001 0.00434831 -1.82475e-06
292 1 0.0001466666 2650.0 0.0101458 0.00437203 1.14646e-05
293 1 0.000256666 2650.0 0.0106396 0.00436982 -8.25324e-07
294 1 0.0001833334 2650.0 0.0111208 0.00435957 -1.04194e-05
295 1 0.0001466666 2650.0 0.0116077 0.00435411 -2.4312e-06
296 1 0.0001466666 2650.0 0.012106 0.00433941 2.22823e-06
297 1 0.00022 2650.0 0.0125722 0.00434109 -1.15067e-05
298 1 0.000293334 2650.0 0.0130808 0.00434903 1.20225e-05
299 1 0.000256666 2650.0 0.0135357 0.00434929 -1.2792e-05
300 1 0.0001466666 2650.0 0.0140284 0.00434045 5.89892e-07
301 1 0.0001833334 2650.0 1.43403e-05 0.00485168 -1.26842e-05
302 1 0.0001466666 2650.0 0.000466608 0.00485343 3.00927e-06
303 1 0.000256666 2650.0 0.000975551 0.00483166 -6.71079e-06
304 1 0.0001466666 2650.0 0.0014446 0.004847 1.97125e-05
305 1 0.00011 2650.0 0.00195084 0.00484754 1.24981e-05
306 1 0.00011 2650.0 0.00243746 0.00484668 -1.5486e-05
307 1 0.0001833334 2650.0 0.00292076 0.00485722 -1.29575e-05
308 1 0.00011 2650.0 0.00337237 0.00484506 1.58549e-05
309 1 0.000293334 2650.0 0.00387712 0.00484252 -1.50205e-05
310 1 0.0001466666 2650.0 0.00435657 0.00483707 1.36778e-05
311 1 0.0001466666 2650.0 0.00484404 0.00485298 -2.21237e-06
312 1 0.000293334 2650.0 0.0053251 0.0048381 1.15405e-05
313 1 0.0001466666 2650.0 0.00580829 0.00482083 1.52214e-05
314 1 0.000366666 2650.0 0.00630154 0.00483489 1.14935e-05
315 1 0.0001833334 2650.0 0.00677825 0.00484269 6.61279e-06
316 1 0.00011 2650.0 0.00724398 0.00483176 -6.4317e-07
317 1 0.000256666 2650.0 0.00774504 0.0048375 -1.57294e-05
318 1 0.0001833334 2650.0 0.00823413 0.00482444 1.9627e-06
319 1 0.000256666 2650.0 0.00871238 0.00483978 -1.06442e-05
320 1 0.00011 2650.0 0.00921114 0.00483576 1.35176e-05
321 1 0.000256666 2650.0 0.00968547 0.00484689 1.55203e-06
322 1 0.00022 2650.0 0.0101526 0.0048205 1.49698e-06
323 1 0.000256666 2650.0 0.0106618 0.00484442 8.29051e-06
324 1 0.0001466666 2650.0 0.0111182 0.00485596 1.00197e-05
325 1 0.0001466666 2650.0 0.0115989 0.00484689 1.42483e-05
326 1 0.00022 2650.0 0.0121097 0.00484175 8.99838e-06
327 1 0.00011 2650.0 0.0125874 0.00485925 1.04967e-05
328 1 0.00011 2650.0 0.0130687 0.00483294 -4.51703e-06
329 1 0.00011 2650.0 0.0135475 0.00482072 4.53552e-06
330 1 0.00011 2650.0 0.0140345 0.00485133 -5.36819e-06
331 1 0.0001466666 2650.0 -1.43223e-05 0.0053383 8.5309e-06
332 1 0.00011 2650.0 0.000471228 0.00533956 1.94432e-05
333 1 0.0001466666 2650.0 0.000970557 0.00533173 8.42685e-06
334 1 0.00022 2650.0 0.00143288 0.00532827 -3.78374e-06
335 1 0.0001833334 2650.0 0.0019403 0.00531332 -7.35169e-06
336 1 0.000256666 2650.0 0.00241207 0.00533011 5.60553e-06
337 1 0.00022 2650.0 0.00290782 0.00534076 -1.02646e-05
338 1 0.0001833334 2650.0 0.00336917 0.00531113 1.31155e-05
339 1 0.00011 2650.0 0.00389016 0.00533635 -1.39346e-05
340 1 0.000293334 2650.0 0.00435129 0.00531138 -1.79997e-05
341 1 0.0001833334 2650.0 0.00482263 0.00531271 1.67211e-05
342 1 0.0001833334 2650.0 0.00531369 0.00531547 -1.07034e-05
343 1 0.0001833334 2650.0 0.00581898 0.00533128 1.90551e-05
344 1 0.00022 2650.0 0.00630588 0.00531306 3.50192e-06
345 1 0.00011 2650.0 0.00678725 0.00531566 -1.67148e-05
346 1 0.00011 2650.0 0.00725623 0.0053237 -1.06848e-05
347 1 0.00011 2650.0 0.00775117 0.00534011 -9.40729e-06
348 1 0.0001833334 2650.0 0.00824252 0.00533034 -1.35848e-05
349 1 0.0001466666 2650.0 0.00872625 0.00533167 -2.28158e-06
350 1 0.0001466666 2650.0 0.00918223 0.00534141 8.2303e-06
351 1 0.00033 2650.0 0.0096839 0.00530713 1.37374e-05
352 1 0.00022 2650.0 0.0101804 0.00531989 3.57016e-07
353 1 0.00011 2650.0 0.0106292 0.00531482 -1.88863e-05
354 1 0.000293334 2650.0 0.0111436 0.00534053 1.74732e-05
355 1 0.00011 2650.0 0.0116146 0.00531548 5.47631e-06
356 1 0.0001466666 2650.0 0.0121099 0.00532997 7.25478e-06
357 1 0.0001833334 2650.0 0.0125868 0.00532382 8.97561e-06
358 1 0.0001833334 2650.0 0.0130847 0.00532781 8.58552e-06
359 1 0.0001466666 2650.0 0.0135464 0.00533177 -6.0304e-06
360 1 0.0001466666 2650.0 0.0140194 0.00533346 -7.05088e-06
361 1 0.00033 2650.0 1.87115e-05 0.00578951 -2.92292e-06
362 1 0.0001466666 2650.0 0.000502155 0.00581624 -1.43466e-05
363 1 0.00022 2650.0 0.00096868 0.00582607 1.28671e-05
364 1 0.00011 2650.0 0.00145299 0.00581643 -1.62151e-05
365 1 0.0001466666 2650.0 0.00193677 0.00581416 -3.47733e-06
366 1 0.0001833334 2650.0 0.00242619 0.00580858 7.47315e-06
367 1 0.0001833334 2650.0 0.00289399 0.00581198 1.90578e-05
368 1 0.00022 2650.0 0.00340693 0.00581442 -1.2639e-05
369 1 0.0001466666 2650.0 0.00386252 0.00579857 1.35289e-05
370 1 0.0001466666 2650.0 0.00435223 0.00581218 1.55034e-06
371 1 0.0001466666 2650.0 0.00483979 0.00580215 7.74831e-06
372 1 0.0001466666 2650.0 0.00530539 0.00581479 7.74104e-06
373 1 0.00022 2650.0 0.00582561 0.00579661 2.62393e-06
374 1 0.0001466666 2650.0 0.00627796 0.00580015 -3.28316e-06
375 1 0.000293334 2650.0 0.00675872 0.00580692 -3.35339e-06
376 1 0.0001466666 2650.0 0.00725029 0.00579559 -2.27239e-06
377 1 0.0001466666 2650.0 0.00772631 0.00581955 1.02627e-05
378 1 0.00011 2650.0 0.00821524 0.00580254 -1.50972e-05
379 1 0.0001466666 2650.0 0.00873027 0.00578893 -7.41888e-06
380 1 0.00011 2650.0 0.00920727 0.00579801 -4.53183e-06
381 1 0.00022 2650.0 0.00966432 0.00582265 5.61106e-06
382 1 0.000293334 2650.0 0.0101815 0.00579182 1.61165e-05
383 1 0.00022 2650.0 0.0106539 0.00579215 -3.48584e-06
384 1 0.000256666 2650.0 0.0111139 0.00579409 1.28132e-05
385 1 0.0001466666 2650.0 0.0116221 0.00581284 1.60029e-05
386 1 0.00022 2650.0 0.0120968 0.00580402 4.60098e-06
387 1 0.00011 2650.0 0.0125739 0.0057891 7.56286e-06
388 1 0.00011 2650.0 0.013061 0.0058022 -5.08929e-06
389 1 0.0001466666 2650.0 0.0135524 0.00579234 3.84335e-06
390 1 0.0001466666 2650.0 0.0140436 0.00582571 1.07234e-05
391 1 0.0001466666 2650.0 8.67061e-06 0.00629104 5.75685e-06
392 1 0.00011 2650.0 0.000496493 0.00630482 -1.71735e-05
393 1 0.0001466666 2650.0 0.000978184 0.00630743 9.57034e-06
394 1 0.0001466666 2650.0 0.00144541 0.00629579 -1.40777e-05
395 1 0.0001466666 2650.0 0.00194141 0.00629228 3.2329e-06
396 1 0.0001833334 2650.0 0.00242411 0.00630265 1.89527e-05
397 1 0.0001466666 2650.0 0.00290019 0.00627639 -1.37999e-07
398 1 0.000403334 2650.0 0.00340506 0.00630887 -8.31728e-06
399 1 0.0001833334 2650.0 0.00387143 0.00630203 -1.76389e-05
400 1 0.0001466666 2650.0 0.00434427 0.00629888 3.87812e-06
401 1 0.000256666 2650.0 0.00483794 0.00628801 -3.09108e-06
402 1 0.000256666 2650.0 0.00532746 0.00627633 -8.6424e-07
403 1 0.00011 2650.0 0.00581592 0.00628907 2.58867e-06
404 1 0.0001833334 2650.0 0.00627933 0.00628287 1.75195e-05
405 1 0.0001833334 2650.0 0.00676079 0.00627586 1.38832e-06
406 1 0.0001833334 2650.0 0.00726902 0.00630351 2.87342e-06
407 1 0.0001833334 2650.0 0.00772565 0.00629806 1.38662e-05
408 1 0.00022 2650.0 0.00823064 0.00630034 1.95653e-05
409 1 0.0001466666 2650.0 0.00870687 0.00630589 1.47223e-05
410 1 0.0001833334 2650.0 0.00921227 0.00630343 -4.94424e-06
411 1 0.0001833334 2650.0 0.00966299 0.00627574 7.84955e-06
412 1 0.0001466666 2650.0 0.0101837 0.00631143 -1.93749e-05
413 1 0.0001466666 2650.0 0.010645 0.00630363 2.45675e-06
414 1 0.0001833334 2650.0 0.0111198 0.0062764 -9.54787e-06
415 1 0.00022 2650.0 0.0116042 0.00630336 9.1018e-06
416 1 0.0001466666 2650.0 0.0120992 0.00628384 1.5512e-05
417 1 0.0001466666 2650.0 0.0125681 0.00628225 1.83698e-05
418 1 0.00033 2650.0 0.0130876 0.00628564 -1.3507e-05
419 1 0.0001466666 2650.0 0.0135661 0.00630084 -1.3281e-05
420 1 0.000293334 2650.0 0.0140473 0.006304 8.91686e-07
421 1 0.00011 2650.0 1.77741e-05 0.00676233 1.5245e-05
422 1 0.00011 2650.0 0.000494261 0.00677288 -1.08502e-06
423 1 0.00011 2650.0 0.000987668 0.00678766 1.49211e-05
424 1 0.00011 2650.0 0.00144444 0.00679321 8.58496e-06
425 1 0.0001833334 2650.0 0.00192106 0.00677232 -6.31536e-06
426 1 0.00011 2650.0 0.00240581 0.00678354 1.86472e-05
427 1 0.0001833334 2650.0 0.0029126 0.00675627 -3.26159e-06
428 1 0.00022 2650.0 0.00337694 0.0067906 -2.26772e-06
429 1 0.00033 2650.0 0.00385366 0.00678192 6.38562e-06
430 1 0.0001833334 2650.0 0.00436304 0.00678076 6.63914e-06
431 1 0.000256666 2650.0 0.00483122 0.00676587 1.77735e-05
432 1 0.0001466666 2650.0 0.00533964 0.00678388 1.61097e-05
433 1 0.0001466666 2650.0 0.00581901 0.00675888 -6.62466e-06
434 1 0.0001466666 2650.0 0.0063065 0.00679142 1.93716e-05
435 1 0.0001833334 2650.0 0.00676395 0.00675875 1.89978e-05
436 1 0.0001833334 2650.0 0.00726106 0.00677647 -1.3391e-05
437 1 0.000256666 2650.0 0.00772872 0.00676175 -1.46607e-05
438 1 0.0001833334 2650.0 0.00821687 0.00676366 -9.15645e-06
439 1 0.000293334 2650.0 0.00870518 0.00678904 4.54872e-06
440 1 0.0001833334 2650.0 0.00917867 0.00676012 -5.88485e-06
441 1 0.00011 2650.0 0.00969412 0.00675909 -1.78475e-05
442 1 0.0001466666 2650.0 0.0101712 0.00676458 -1.21499e-05
443 1 0.0001466666 2650.0 0.0106611 0.00676619 -1.68858e-05
444 1 0.00011 2650.0 0.0111452 0.00678583 -2.61586e-06
445 1 0.0001466666 2650.0 0.0116073 0.00675823 1.72828e-06
446 1 0.00011 2650.0 0.0120808 0.00678838 -1.64515e-06
447 1 0.00011 2650.0 0.0125748 0.0067664 1.79313e-05
448 1 0.00022 2650.0 0.0130837 0.00678925 1.28988e-05
449 1 0.0001466666 2650.0 0.0135328 0.00679262 -1.40253e-05
450 1 0.00011 2650.0 0.0140508 0.00677241 -1.19257e-05
451 1 0.0001466666 2650.0 -1.93035e-05 0.00726924 -1.74069e-05
452 1 0.0001466666 2650.0 0.000491353 0.00725543 -8.99229e-06
453 1 0.0001833334 2650.0 0.000987762 0.00726746 -7.53856e-06
454 1 0.000256666 2650.0 0.00147134 0.00726597 -1.53016e-05
455 1 0.0001466666 2650.0 0.00192432 0.00725832 -4.88395e-06
456 1 0.0001466666 2650.0 0.00242627 0.00727547 1.47761e-05
457 1 0.0001466666 2650.0 0.00291377 0.00727913 -2.79035e-06
458 1 0.0001466666 2650.0 0.00337701 0.00725571 1.36205e-06
459 1 0.00022 2650.0 0.00387512 0.00724029 4.42427e-06
460 1 0.0001833334 2650.0 0.00434597 0.00726692 -6.91521e-07
461 1 0.00011 2650.0 0.00482042 0.00724803 1.04833e-06
462 1 0.0001833334 2650.0 0.00532123 0.00727462 5.08621e-06
463 1 0.0001466666 2650.0 0.00579551 0.00726835 2.58399e-06
464 1 0.000256666 2650.0 0.00627991 0.00725267 -4.5294e-06
465 1 0.00022 2650.0 0.00676151 0.00724354 1.50705e-05
466 1 0.000256666 2650.0 0.0072687 0.00726866 -1.97473e-05
467 1 0.0001466666 2650.0 0.00773922 0.00724814 -6.76639e-06
468 1 0.00011 2650.0 0.00823647 0.00725569 -8.31766e-06
469 1 0.0001466666 2650.0 0.00870516 0.00727172 -1.17316e-05
470 1 0.0001466666 2650.0 0.00919128 0.00724236 1.20885e-05
471 1 0.00011 2650.0 0.00966463 0.00725592 7.52494e-06
472 1 0.00011 2650.0 0.0101532 0.00727684 1.34759e-05
473 1 0.00011 2650.0 0.0106646 0.00725242 -1.41821e-06
474 1 0.00011 2650.0 0.0111353 0.00725155 -9.12026e-06
475 1 0.00011 2650.0 0.0116233 0.00725638 -1.45062e-05
476 1 0.0001466666 2650.0 0.0121123 0.0072602 -8.48371e-06
477 1 0.0001466666 2650.0 0.0125978 0.00724413 -1.44091e-05
478 1 0.0001833334 2650.0 0.0130489 0.00725492 7.07702e-07
479 1 0.0001466666 2650.0 0.0135664 0.00726721 1.87452e-06
480 1 0.00033 2650.0 0.0140195 0.00726953 1.27759e-05
481 1 0.00033 2650.0 1.39967e-05 0.00776208 1.74323e-05
482 1 0.00022 2650.0 0.000468925 0.00773886 1.50024e-05
483 1 0.0001833334 2650.0 0.000979349 0.0077413 2.11545e-06
484 1 0.0001466666 2650.0 0.0014456 0.00773167 8.36899e-06
485 1 0.0001466666 2650.0 0.00193442 0.00775095 6.82884e-06
486 1 0.00011 2650.0 0.00243144 0.00772497 8.93349e-06
487 1 0.000256666 2650.0 0.00288591 0.00772995 4.33084e-06
488 1 0.00022 2650.0 0.00339159 0.00773739 -2.88757e-06
489 1 0.00022 2650.0 0.00389022 0.00773454 8.25788e-06
490 1 0.0001833334 2650.0 0.0043481 0.00776088 -6.89065e-06
491 1 0.0001466666 2650.0 0.00485879 0.00773823 -1.20261e-05
492 1 0.0001833334 2650.0 0.00532025 0.00772904 -5.93671e-06
493 1 0.00022 2650.0 0.0058218 0.0077471 -6.92997e-06
494 1 0.000256666 2650.0 0.00628351 0.00774154 1.65715e-05
495 1 0.0001833334 2650.0 0.00678714 0.0077373 -1.11246e-05
496 1 0.000256666 2650.0 0.00724032 0.00775642 -1.86996e-05
497 1 0.0001466666 2650.0 0.00772514 0.00773904 -5.73868e-07
498 1 0.0001833334 2650.0 0.00824539 0.00775712 9.32302e-06
499 1 0.0001833334 2650.0 0.00870686 0.00773249 -2.73608e-06
500 1 0.0001833334 2650.0 0.00918637 0.007729 -1.07496e-05
501 1 0.00022 2650.0 0.00966736 0.00773276 1.24718e-05
502 1 0.00011 2650.0 0.0101753 0.00773758 7.19871e-06
503 1 0.0001466666 2650.0 0.0106587 0.00776082 1.21704e-05
504 1 0.0001466666 2650.0 0.0111464 0.00774957 3.01601e-06
505 1 0.0001466666 2650.0 0.011618 0.00775585 6.90839e-06
506 1 0.0001833334 2650.0 0.0121021 0.00775261 6.67244e-06
507 1 0.000293334 2650.0 0.0125805 0.00774064 -7.4868e-06
508 1 0.000293334 2650.0 0.0130861 0.00773701 1.064e-05
509 1 0.00011 2650.0 0.0135449 0.00772846 1.80947e-05
510 1 0.0001466666 2650.0 0.0140251 0.00774822 -4.7684e-06
511 1 0.00011 2650.0 7.82033e-06 0.00823183 1.87006e-05
512 1 0.0001466666 2650.0 0.000479957 0.00822747 -9.40755e-06
513 1 0.0001466666 2650.0 0.000978057 0.00821093 -1.47054e-05
514 1 0.00011 2650.0 0.00144221 0.00824721 -1.89466e-05
515 1 0.0001466666 2650.0 0.00192381 0.00824068 -5.25368e-06