<?xml version="1.0"?>
<VTKFile type="PolyData" version="0.1" byte_order="LittleEndian" header_type="UInt32">
  <PolyData>
    <Piece NumberOfPoints="972" NumberOfVerts="0" NumberOfLines="0" NumberOfStrips="0" NumberOfPolys="324">
      <PointData>
      </PointData>
      <CellData>
        <DataArray type="Float64" Name="normal_stress_average" format="ascii" RangeMin="0" RangeMax="0">
          0 0 0 0 0 0
          0 0 0 0 0 0
          0 0 0 0 0 0
          0 0 0 0 0 0
          0 0 0 0 0 0
          0 0 0 0 0 0
          0 0 0 0 0 0
          0 0 0 0 0 0
          0 0 0 0 0 0
          0 0 0 0 0 0
          0 0 0 0 0 0
          0 0 0 0 0 0
          0 0 0 0 0 0
          0 0 0 0 0 0
          0 0 0 0 0 0
          0 0 0 0 0 0
          0 0 0 0 0 0
          0 0 0 0 0 0
          0 0 0 0 0 0
          0 0 0 0 0 0
          0 0 0 0 0 0
          0 0 0 0 0 0
          0 0 0 0 0 0
          0 0 0 0 0 0
          0 0 0 0 0 0
          0 0 0 0 0 0
          0 0 0 0 0 0
          0 0 0 0 0 0
          0 0 0 0 0 0
          0 0 0 0 0 0
          0 0 0 0 0 0
          0 0 0 0 0 0
          0 0 0 0 0 0
          0 0 0 0 0 0
          0 0 0 0 0 0
          0 0 0 0 0 0
          0 0 0 0 0 0
          0 0 0 0 0 0
          0 0 0 0 0 0
          0 0 0 0 0 0
          0 0 0 0 0 0
          0 0 0 0 0 0
          0 0 0 0 0 0
          0 0 0 0 0 0
          0 0 0 0 0 0
          0 0 0 0 0 0
          0 0 0 0 0 0
          0 0 0 0 0 0
          0 0 0 0 0 0
          0 0 0 0 0 0
          0 0 0 0 0 0
          0 0 0 0 0 0
          0 0 0 0 0 0
          0 0 0 0 0 0
        </DataArray>
        <DataArray type="Float64" Name="shear_stress_average" format="ascii" RangeMin="0" RangeMax="0">
          0 0 0 0 0 0
          0 0 0 0 0 0
          0 0 0 0 0 0
          0 0 0 0 0 0
          0 0 0 0 0 0
          0 0 0 0 0 0
          0 0 0 0 0 0
          0 0 0 0 0 0
          0 0 0 0 0 0
          0 0 0 0 0 0
          0 0 0 0 0 0
          0 0 0 0 0 0
          0 0 0 0 0 0
          0 0 0 0 0 0
          0 0 0 0 0 0
          0 0 0 0 0 0
          0 0 0 0 0 0
          0 0 0 0 0 0
          0 0 0 0 0 0
          0 0 0 0 0 0
          0 0 0 0 0 0
          0 0 0 0 0 0
          0 0 0 0 0 0
          0 0 0 0 0 0
          0 0 0 0 0 0
          0 0 0 0 0 0
          0 0 0 0 0 0
          0 0 0 0 0 0
          0 0 0 0 0 0
          0 0 0 0 0 0
          0 0 0 0 0 0
          0 0 0 0 0 0
          0 0 0 0 0 0
          0 0 0 0 0 0
          0 0 0 0 0 0
          0 0 0 0 0 0
          0 0 0 0 0 0
          0 0 0 0 0 0
          0 0 0 0 0 0
          0 0 0 0 0 0
          0 0 0 0 0 0
          0 0 0 0 0 0
          0 0 0 0 0 0
          0 0 0 0 0 0
          0 0 0 0 0 0
          0 0 0 0 0 0
          0 0 0 0 0 0
          0 0 0 0 0 0
          0 0 0 0 0 0
          0 0 0 0 0 0
          0 0 0 0 0 0
          0 0 0 0 0 0
          0 0 0 0 0 0
          0 0 0 0 0 0
        </DataArray>
      </CellData>
      <Points>
        <DataArray type="Float32" Name="Points" NumberOfComponents="3" format="ascii" RangeMin="0.0003763212770147893" RangeMax="0.01956743985475391">
          0.008642511442303658 0.002393674571067095 -0.0002158000716008246 0.010100502520799637 0.0019282399443909526 -0.0002158000716008246
          0.010007781907916069 0.003255908377468586 -0.0002158000716008246 0.010003320872783661 0.006363252177834511 -0.0002158000716008246
          0.010027261450886726 0.007733238860964775 -0.0002158000716008246 0.008615478873252869 0.007154701743274927 -0.0002158000716008246
          0.0011439130175858736 0.007488806266337633 -0.0002158000716008246 0.0019422404002398252 0.006058134604245424 -0.0002158000716008246
          0.00266100000590086 0.007261861581355333 -0.0002158000716008246 0.010007781907916069 0.003255908377468586 -0.0002158000716008246
          0.008893543854355812 0.0036881649866700172 -0.0002158000716008246 0.008642511442303658 0.002393674571067095 -0.0002158000716008246
          0.008615478873252869 0.007154701743274927 -0.0002158000716008246 0.008902366273105145 0.005821852013468742 -0.0002158000716008246
          0.010003320872783661 0.006363252177834511 -0.0002158000716008246 0.0011439130175858736 0.007488806266337633 -0.0002158000716008246
          0.0007555130869150162 0.006259750109165907 -0.0002158000716008246 0.0019422404002398252 0.006058134604245424 -0.0002158000716008246
          0.0010428314562886953 0.002123687183484435 -0.0002158000716008246 0.0025178352370858192 0.002236327389255166 -0.0002158000716008246
          0.0018303879769518971 0.003504132851958275 -0.0002158000716008246 0.003350714687258005 0.0010143851395696402 -0.0002158000716008246
          0.004061660263687372 0.0022576467599719763 -0.0002158000716008246 0.0025178352370858192 0.002236327389255166 -0.0002158000716008246
          0.0018303879769518971 0.003504132851958275 -0.0002158000716008246 0.0006726192659698427 0.003380750073119998 -0.0002158000716008246
          0.0010428314562886953 0.002123687183484435 -0.0002158000716008246 0.001057108398526907 0.004801883362233639 -0.0002158000716008246
          0.0018303879769518971 0.003504132851958275 -0.0002158000716008246 0.00266100000590086 0.004768574144691229 -0.0002158000716008246
          0.001057108398526907 0.004801883362233639 -0.0002158000716008246 0.00266100000590086 0.004768574144691229 -0.0002158000716008246
          0.0019422404002398252 0.006058134604245424 -0.0002158000716008246 0.004799096379429102 0.0035086858551949263 -0.0002158000716008246
          0.004075102508068085 0.004752707667648792 -0.0002158000716008246 0.0032538899686187506 0.003442740300670266 -0.0002158000716008246
          0.0025178352370858192 0.002236327389255166 -0.0002158000716008246 0.004061660263687372 0.0022576467599719763 -0.0002158000716008246
          0.0032538899686187506 0.003442740300670266 -0.0002158000716008246 0.009132650680840015 0.0010009283432736993 -0.0002158000716008246
          0.010100502520799637 0.0019282399443909526 -0.0002158000716008246 0.008642511442303658 0.002393674571067095 -0.0002158000716008246
          0.008369865827262402 0.004778467118740082 -0.0002158000716008246 0.008893543854355812 0.0036881649866700172 -0.0002158000716008246
          0.009823914617300034 0.004797622095793486 -0.0002158000716008246 0.009823914617300034 0.004797622095793486 -0.0002158000716008246
          0.008902366273105145 0.005821852013468742 -0.0002158000716008246 0.008369865827262402 0.004778467118740082 -0.0002158000716008246
          0.0032538899686187506 0.003442740300670266 -0.0002158000716008246 0.004075102508068085 0.004752707667648792 -0.0002158000716008246
          0.00266100000590086 0.004768574144691229 -0.0002158000716008246 0.0032538899686187506 0.003442740300670266 -0.0002158000716008246
          0.004061660263687372 0.0022576467599719763 -0.0002158000716008246 0.004799096379429102 0.0035086858551949263 -0.0002158000716008246
          0.010027261450886726 0.007733238860964775 -0.0002158000716008246 0.00892922654747963 0.00835320632904768 -0.0002158000716008246
          0.008615478873252869 0.007154701743274927 -0.0002158000716008246 0.00266100000590086 0.007261861581355333 -0.0002158000716008246
          0.002097740303725004 0.008418154902756214 -0.0002158000716008246 0.0011439130175858736 0.007488806266337633 -0.0002158000716008246
          0.0018303879769518971 0.003504132851958275 -0.0002158000716008246 0.0032538899686187506 0.003442740300670266 -0.0002158000716008246
          0.00266100000590086 0.004768574144691229 -0.0002158000716008246 0.0009729361045174301 0.00907124299556017 -0.0002158000716008246
          0.002097740303725004 0.008418154902756214 -0.0002158000716008246 0.0019412499386817217 0.010051356628537178 -0.0002158000716008246
          0.002097740303725004 0.008418154902756214 -0.0002158000716008246 0.0027780181262642145 0.009279165416955948 -0.0002158000716008246
          0.0019412499386817217 0.010051356628537178 -0.0002158000716008246 0.009823914617300034 0.004797622095793486 -0.0002158000716008246
          0.008893543854355812 0.0036881649866700172 -0.0002158000716008246 0.010007781907916069 0.003255908377468586 -0.0002158000716008246
          0.0018303879769518971 0.003504132851958275 -0.0002158000716008246 0.0025178352370858192 0.002236327389255166 -0.0002158000716008246
          0.0032538899686187506 0.003442740300670266 -0.0002158000716008246 0.0025178352370858192 0.002236327389255166 -0.0002158000716008246
          0.001983091700822115 0.0009661546791903675 -0.0002158000716008246 0.003350714687258005 0.0010143851395696402 -0.0002158000716008246
          0.007698233239352703 0.0010240243282169104 -0.0002158000716008246 0.008642511442303658 0.002393674571067095 -0.0002158000716008246
          0.006979330442845821 0.0022745172027498484 -0.0002158000716008246 0.006979330442845821 0.0022745172027498484 -0.0002158000716008246
          0.007699250243604183 0.0035219306591898203 -0.0002158000716008246 0.006259717047214508 0.003521780949085951 -0.0002158000716008246
          0.00841899961233139 -0.00021800004469696432 -0.0002158000716008246 0.007698233239352703 0.0010240243282169104 -0.0002158000716008246
          0.006979499943554401 -0.00021800004469696432 -0.0002158000716008246 0.005539999809116125 0.011297999881207943 -0.0002158000716008246
          0.006259750109165907 0.010051356628537178 -0.0002158000716008246 0.006979499943554401 0.011297999881207943 -0.0002158000716008246
          0.006259717047214508 0.003521780949085951 -0.0002158000716008246 0.007699250243604183 0.0035219306591898203 -0.0002158000716008246
          0.006978906225413084 0.004768177401274443 -0.0002158000716008246 0.009132650680840015 0.0010009283432736993 -0.0002158000716008246
          0.007698233239352703 0.0010240243282169104 -0.0002158000716008246 0.00841899961233139 -0.00021800004469696432 -0.0002158000716008246
          0.00990721769630909 0.009145552292466164 -0.0002158000716008246 0.010027261450886726 0.007733238860964775 -0.0002158000716008246
          0.011297999881207943 0.00841899961233139 -0.0002158000716008246 0.0019412499386817217 0.010051356628537178 -0.0002158000716008246
          0.003380750073119998 0.010051356628537178 -0.0002158000716008246 0.00266100000590086 0.011297999881207943 -0.0002158000716008246
          0.008642511442303658 0.002393674571067095 -0.0002158000716008246 0.007699250243604183 0.0035219306591898203 -0.0002158000716008246
          0.006979330442845821 0.0022745172027498484 -0.0002158000716008246 0.007699250243604183 0.0035219306591898203 -0.0002158000716008246
          0.008369865827262402 0.004778467118740082 -0.0002158000716008246 0.006978906225413084 0.004768177401274443 -0.0002158000716008246
          0.006259750109165907 0.0010286435717716813 -0.0002158000716008246 0.004815239459276199 0.001026245765388012 -0.0002158000716008246
          0.005539999809116125 -0.00021800004469696432 -0.0002158000716008246 0.011297999881207943 0.005539999809116125 -0.0002158000716008246
          0.009823914617300034 0.004797622095793486 -0.0002158000716008246 0.011297999881207943 0.004100500140339136 -0.0002158000716008246
          0.011297999881207943 0.00841899961233139 -0.0002158000716008246 0.010027261450886726 0.007733238860964775 -0.0002158000716008246
          0.011297999881207943 0.006979499943554401 -0.0002158000716008246 0.00266100000590086 0.011297999881207943 -0.0002158000716008246
          0.003380750073119998 0.010051356628537178 -0.0002158000716008246 0.004100500140339136 0.011297999881207943 -0.0002158000716008246
          0.006979385390877724 0.007261788472533226 -0.0002158000716008246 0.008615478873252869 0.007154701743274927 -0.0002158000716008246
          0.007689102552831173 0.008445752784609795 -0.0002158000716008246 0.004100382793694735 0.007261787075549364 -0.0002158000716008246
          0.004820249974727631 0.008508505299687386 -0.0002158000716008246 0.0033902479335665703 0.00844627432525158 -0.0002158000716008246
          0.005539999809116125 -0.00021800004469696432 -0.0002158000716008246 0.004815239459276199 0.001026245765388012 -0.0002158000716008246
          0.004100500140339136 -0.00021800004469696432 -0.0002158000716008246 0.004100500140339136 -0.00021800004469696432 -0.0002158000716008246
          0.004815239459276199 0.001026245765388012 -0.0002158000716008246 0.003350714687258005 0.0010143851395696402 -0.0002158000716008246
          0.006979499943554401 -0.00021800004469696432 -0.0002158000716008246 0.006259750109165907 0.0010286435717716813 -0.0002158000716008246
          0.005539999809116125 -0.00021800004469696432 -0.0002158000716008246 0.009858500212430954 -0.00021800004469696432 -0.0002158000716008246
          0.009132650680840015 0.0010009283432736993 -0.0002158000716008246 0.00841899961233139 -0.00021800004469696432 -0.0002158000716008246
          0.011297999881207943 0.004100500140339136 -0.0002158000716008246 0.009823914617300034 0.004797622095793486 -0.0002158000716008246
          0.010007781907916069 0.003255908377468586 -0.0002158000716008246 0.011297999881207943 0.006979499943554401 -0.0002158000716008246
          0.010003320872783661 0.006363252177834511 -0.0002158000716008246 0.011297999881207943 0.005539999809116125 -0.0002158000716008246
          0.011297999881207943 0.009858500212430954 -0.0002158000716008246 0.00990721769630909 0.009145552292466164 -0.0002158000716008246
          0.011297999881207943 0.00841899961233139 -0.0002158000716008246 0.006979499943554401 0.011297999881207943 -0.0002158000716008246
          0.006259750109165907 0.010051356628537178 -0.0002158000716008246 0.007695670239627361 0.010094656608998775 -0.0002158000716008246
          0.004100500140339136 0.011297999881207943 -0.0002158000716008246 0.004820249974727631 0.010051356628537178 -0.0002158000716008246
          0.005539999809116125 0.011297999881207943 -0.0002158000716008246 0.0012214999878779054 0.011297999881207943 -0.0002158000716008246
          0.0019412499386817217 0.010051356628537178 -0.0002158000716008246 0.00266100000590086 0.011297999881207943 -0.0002158000716008246
          -0.0002180000301450491 0.004100500140339136 -0.0002158000716008246 0.001057108398526907 0.004801883362233639 -0.0002158000716008246
          -0.0002180000301450491 0.005539999809116125 -0.0002158000716008246 -0.0002180000301450491 0.0012214999878779054 -0.0002158000716008246
          0.0010428314562886953 0.002123687183484435 -0.0002158000716008246 -0.0002180000301450491 0.00266100000590086 -0.0002158000716008246
          0.005539971869438887 0.0022751588840037584 -0.0002158000716008246 0.004815239459276199 0.001026245765388012 -0.0002158000716008246
          0.006259750109165907 0.0010286435717716813 -0.0002158000716008246 0.004799096379429102 0.0035086858551949263 -0.0002158000716008246
          0.004061660263687372 0.0022576467599719763 -0.0002158000716008246 0.005539971869438887 0.0022751588840037584 -0.0002158000716008246
          0.006259717047214508 0.003521780949085951 -0.0002158000716008246 0.0055364686995744705 0.0047663417644798756 -0.0002158000716008246
          0.004799096379429102 0.0035086858551949263 -0.0002158000716008246 0.005539999809116125 0.007261861581355333 -0.0002158000716008246
          0.004820249974727631 0.008508505299687386 -0.0002158000716008246 0.004100382793694735 0.007261787075549364 -0.0002158000716008246
          0.006259750109165907 0.008508505299687386 -0.0002158000716008246 0.004820249974727631 0.008508505299687386 -0.0002158000716008246
          0.005539999809116125 0.007261861581355333 -0.0002158000716008246 0.006979499943554401 -0.00021800004469696432 -0.0002158000716008246
          0.007698233239352703 0.0010240243282169104 -0.0002158000716008246 0.006259750109165907 0.0010286435717716813 -0.0002158000716008246
          0.011297999881207943 0.006979499943554401 -0.0002158000716008246 0.010027261450886726 0.007733238860964775 -0.0002158000716008246
          0.010003320872783661 0.006363252177834511 -0.0002158000716008246 0.004820249974727631 0.010051356628537178 -0.0002158000716008246
          0.006259750109165907 0.010051356628537178 -0.0002158000716008246 0.005539999809116125 0.011297999881207943 -0.0002158000716008246
          0.004100500140339136 0.011297999881207943 -0.0002158000716008246 0.003380750073119998 0.010051356628537178 -0.0002158000716008246
          0.004820249974727631 0.010051356628537178 -0.0002158000716008246 0.006259717047214508 0.003521780949085951 -0.0002158000716008246
          0.004799096379429102 0.0035086858551949263 -0.0002158000716008246 0.005539971869438887 0.0022751588840037584 -0.0002158000716008246
          0.005539971869438887 0.0022751588840037584 -0.0002158000716008246 0.004061660263687372 0.0022576467599719763 -0.0002158000716008246
          0.004815239459276199 0.001026245765388012 -0.0002158000716008246 0.006259717047214508 0.003521780949085951 -0.0002158000716008246
          0.006978906225413084 0.004768177401274443 -0.0002158000716008246 0.0055364686995744705 0.0047663417644798756 -0.0002158000716008246
          0.006978906225413084 0.004768177401274443 -0.0002158000716008246 0.006259062327444553 0.0060147796757519245 -0.0002158000716008246
          0.0055364686995744705 0.0047663417644798756 -0.0002158000716008246 0.006259062327444553 0.0060147796757519245 -0.0002158000716008246
          0.004819546826183796 0.006014772690832615 -0.0002158000716008246 0.0055364686995744705 0.0047663417644798756 -0.0002158000716008246
          0.004819546826183796 0.006014772690832615 -0.0002158000716008246 0.004075102508068085 0.004752707667648792 -0.0002158000716008246
          0.0055364686995744705 0.0047663417644798756 -0.0002158000716008246 0.006978906225413084 0.004768177401274443 -0.0002158000716008246
          0.007699250243604183 0.006015217863023281 -0.0002158000716008246 0.006259062327444553 0.0060147796757519245 -0.0002158000716008246
          0.006259062327444553 0.0060147796757519245 -0.0002158000716008246 0.005539999809116125 0.007261861581355333 -0.0002158000716008246
          0.004819546826183796 0.006014772690832615 -0.0002158000716008246 0.006259062327444553 0.0060147796757519245 -0.0002158000716008246
          0.006979385390877724 0.007261788472533226 -0.0002158000716008246 0.005539999809116125 0.007261861581355333 -0.0002158000716008246
          0.004100382793694735 0.007261787075549364 -0.0002158000716008246 0.0033806131687015295 0.006015131250023842 -0.0002158000716008246
          0.004819546826183796 0.006014772690832615 -0.0002158000716008246 0.006979385390877724 0.007261788472533226 -0.0002158000716008246
          0.007689102552831173 0.008445752784609795 -0.0002158000716008246 0.006259750109165907 0.008508505299687386 -0.0002158000716008246
          0.006979385390877724 0.007261788472533226 -0.0002158000716008246 0.007699250243604183 0.006015217863023281 -0.0002158000716008246
          0.008615478873252869 0.007154701743274927 -0.0002158000716008246 0.004100382793694735 0.007261787075549364 -0.0002158000716008246
          0.00266100000590086 0.007261861581355333 -0.0002158000716008246 0.0033806131687015295 0.006015131250023842 -0.0002158000716008246
          0.00266100000590086 0.004768574144691229 -0.0002158000716008246 0.004075102508068085 0.004752707667648792 -0.0002158000716008246
          0.0033806131687015295 0.006015131250023842 -0.0002158000716008246 0.004100500140339136 -0.00021800004469696432 -0.0002158000716008246
          0.003350714687258005 0.0010143851395696402 -0.0002158000716008246 0.00266100000590086 -0.00021800004469696432 -0.0002158000716008246
          0.011297999881207943 0.004100500140339136 -0.0002158000716008246 0.010007781907916069 0.003255908377468586 -0.0002158000716008246
          0.011297999881207943 0.00266100000590086 -0.0002158000716008246 0.010003320872783661 0.006363252177834511 -0.0002158000716008246
          0.009823914617300034 0.004797622095793486 -0.0002158000716008246 0.011297999881207943 0.005539999809116125 -0.0002158000716008246
          0.009132650680840015 0.0010009283432736993 -0.0002158000716008246 0.008642511442303658 0.002393674571067095 -0.0002158000716008246
          0.007698233239352703 0.0010240243282169104 -0.0002158000716008246 0.006979330442845821 0.0022745172027498484 -0.0002158000716008246
          0.006259717047214508 0.003521780949085951 -0.0002158000716008246 0.005539971869438887 0.0022751588840037584 -0.0002158000716008246
          0.0055364686995744705 0.0047663417644798756 -0.0002158000716008246 0.004075102508068085 0.004752707667648792 -0.0002158000716008246
          0.004799096379429102 0.0035086858551949263 -0.0002158000716008246 0.008369865827262402 0.004778467118740082 -0.0002158000716008246
          0.007699250243604183 0.006015217863023281 -0.0002158000716008246 0.006978906225413084 0.004768177401274443 -0.0002158000716008246
          0.006259062327444553 0.0060147796757519245 -0.0002158000716008246 0.007699250243604183 0.006015217863023281 -0.0002158000716008246
          0.006979385390877724 0.007261788472533226 -0.0002158000716008246 0.005539999809116125 0.007261861581355333 -0.0002158000716008246
          0.004100382793694735 0.007261787075549364 -0.0002158000716008246 0.004819546826183796 0.006014772690832615 -0.0002158000716008246
          0.0033806131687015295 0.006015131250023842 -0.0002158000716008246 0.004075102508068085 0.004752707667648792 -0.0002158000716008246
          0.004819546826183796 0.006014772690832615 -0.0002158000716008246 0.004100382793694735 0.007261787075549364 -0.0002158000716008246
          0.0033902479335665703 0.00844627432525158 -0.0002158000716008246 0.00266100000590086 0.007261861581355333 -0.0002158000716008246
          0.00266100000590086 0.007261861581355333 -0.0002158000716008246 0.0019422404002398252 0.006058134604245424 -0.0002158000716008246
          0.0033806131687015295 0.006015131250023842 -0.0002158000716008246 0.006979499943554401 0.011297999881207943 -0.0002158000716008246
          0.007695670239627361 0.010094656608998775 -0.0002158000716008246 0.00841899961233139 0.011297999881207943 -0.0002158000716008246
          -0.0002180000301450491 0.006979499943554401 -0.0002158000716008246 0.0011439130175858736 0.007488806266337633 -0.0002158000716008246
          -0.0002180000301450491 0.00841899961233139 -0.0002158000716008246 0.006979330442845821 0.0022745172027498484 -0.0002158000716008246
          0.005539971869438887 0.0022751588840037584 -0.0002158000716008246 0.006259750109165907 0.0010286435717716813 -0.0002158000716008246
          0.006979385390877724 0.007261788472533226 -0.0002158000716008246 0.006259750109165907 0.008508505299687386 -0.0002158000716008246
          0.005539999809116125 0.007261861581355333 -0.0002158000716008246 0.0019422404002398252 0.006058134604245424 -0.0002158000716008246
          0.00266100000590086 0.004768574144691229 -0.0002158000716008246 0.0033806131687015295 0.006015131250023842 -0.0002158000716008246
          0.007698233239352703 0.0010240243282169104 -0.0002158000716008246 0.006979330442845821 0.0022745172027498484 -0.0002158000716008246
          0.006259750109165907 0.0010286435717716813 -0.0002158000716008246 0.004815239459276199 0.001026245765388012 -0.0002158000716008246
          0.004061660263687372 0.0022576467599719763 -0.0002158000716008246 0.003350714687258005 0.0010143851395696402 -0.0002158000716008246
          0.009088612161576748 0.0102278683334589 -0.0002158000716008246 0.00840707402676344 0.009286788292229176 -0.0002158000716008246
          0.00990721769630909 0.009145552292466164 -0.0002158000716008246 0.00990721769630909 0.009145552292466164 -0.0002158000716008246
          0.00840707402676344 0.009286788292229176 -0.0002158000716008246 0.00892922654747963 0.00835320632904768 -0.0002158000716008246
          0.010003320872783661 0.006363252177834511 -0.0002158000716008246 0.008902366273105145 0.005821852013468742 -0.0002158000716008246
          0.009823914617300034 0.004797622095793486 -0.0002158000716008246 0.011297999881207943 0.00266100000590086 -0.0002158000716008246
          0.010100502520799637 0.0019282399443909526 -0.0002158000716008246 0.011297999881207943 0.0012214999878779054 -0.0002158000716008246
          0.00841899961233139 0.011297999881207943 -0.0002158000716008246 0.009088612161576748 0.0102278683334589 -0.0002158000716008246
          0.009858500212430954 0.011297999881207943 -0.0002158000716008246 -0.0002180000301450491 0.00841899961233139 -0.0002158000716008246
          0.0009729361045174301 0.00907124299556017 -0.0002158000716008246 -0.0002180000301450491 0.009858500212430954 -0.0002158000716008246
          0.0019422404002398252 0.006058134604245424 -0.0002158000716008246 0.0007555130869150162 0.006259750109165907 -0.0002158000716008246
          0.001057108398526907 0.004801883362233639 -0.0002158000716008246 0.00266100000590086 -0.00021800004469696432 -0.0002158000716008246
          0.001983091700822115 0.0009661546791903675 -0.0002158000716008246 0.0012214999878779054 -0.00021800004469696432 -0.0002158000716008246
          0.003350714687258005 0.0010143851395696402 -0.0002158000716008246 0.001983091700822115 0.0009661546791903675 -0.0002158000716008246
          0.00266100000590086 -0.00021800004469696432 -0.0002158000716008246 0.001057108398526907 0.004801883362233639 -0.0002158000716008246
          0.0006726192659698427 0.003380750073119998 -0.0002158000716008246 0.0018303879769518971 0.003504132851958275 -0.0002158000716008246
          0.010007781907916069 0.003255908377468586 -0.0002158000716008246 0.010100502520799637 0.0019282399443909526 -0.0002158000716008246
          0.011297999881207943 0.00266100000590086 -0.0002158000716008246 0.007695670239627361 0.010094656608998775 -0.0002158000716008246
          0.009088612161576748 0.0102278683334589 -0.0002158000716008246 0.00841899961233139 0.011297999881207943 -0.0002158000716008246
          0.0011439130175858736 0.007488806266337633 -0.0002158000716008246 0.0009729361045174301 0.00907124299556017 -0.0002158000716008246
          -0.0002180000301450491 0.00841899961233139 -0.0002158000716008246 0.0010428314562886953 0.002123687183484435 -0.0002158000716008246
          0.001983091700822115 0.0009661546791903675 -0.0002158000716008246 0.0025178352370858192 0.002236327389255166 -0.0002158000716008246
          0.007699250243604183 0.006015217863023281 -0.0002158000716008246 0.008902366273105145 0.005821852013468742 -0.0002158000716008246
          0.008615478873252869 0.007154701743274927 -0.0002158000716008246 -0.0002180000301450491 0.006979499943554401 -0.0002158000716008246
          0.0007555130869150162 0.006259750109165907 -0.0002158000716008246 0.0011439130175858736 0.007488806266337633 -0.0002158000716008246
          0.001057108398526907 0.004801883362233639 -0.0002158000716008246 0.0007555130869150162 0.006259750109165907 -0.0002158000716008246
          -0.0002180000301450491 0.005539999809116125 -0.0002158000716008246 0.008642511442303658 0.002393674571067095 -0.0002158000716008246
          0.008893543854355812 0.0036881649866700172 -0.0002158000716008246 0.007699250243604183 0.0035219306591898203 -0.0002158000716008246
          0.0010428314562886953 0.002123687183484435 -0.0002158000716008246 0.0006726192659698427 0.003380750073119998 -0.0002158000716008246
          -0.0002180000301450491 0.00266100000590086 -0.0002158000716008246 -0.0002180000301450491 0.004100500140339136 -0.0002158000716008246
          0.0006726192659698427 0.003380750073119998 -0.0002158000716008246 0.001057108398526907 0.004801883362233639 -0.0002158000716008246
          0.0012214999878779054 -0.00021800004469696432 -0.0002158000716008246 0.0008357870974577963 0.0008357870974577963 -0.0002158000716008246
          -0.0002180000301450491 -0.00021800004469696432 -0.0002158000716008246 -0.0002180000301450491 -0.00021800004469696432 -0.0002158000716008246
          0.0008357870974577963 0.0008357870974577963 -0.0002158000716008246 -0.0002180000301450491 0.0012214999878779054 -0.0002158000716008246
          0.011297999881207943 -0.00021800004469696432 -0.0002158000716008246 0.010244213044643402 0.0008357870974577963 -0.0002158000716008246
          0.009858500212430954 -0.00021800004469696432 -0.0002158000716008246 0.011297999881207943 0.0012214999878779054 -0.0002158000716008246
          0.010244213044643402 0.0008357870974577963 -0.0002158000716008246 0.011297999881207943 -0.00021800004469696432 -0.0002158000716008246
          0.011297999881207943 0.011297999881207943 -0.0002158000716008246 0.010244213044643402 0.010244213044643402 -0.0002158000716008246
          0.011297999881207943 0.009858500212430954 -0.0002158000716008246 0.009858500212430954 0.011297999881207943 -0.0002158000716008246
          0.010244213044643402 0.010244213044643402 -0.0002158000716008246 0.011297999881207943 0.011297999881207943 -0.0002158000716008246
          -0.0002180000301450491 0.011297999881207943 -0.0002158000716008246 0.0008357870974577963 0.010244213044643402 -0.0002158000716008246
          0.0012214999878779054 0.011297999881207943 -0.0002158000716008246 -0.0002180000301450491 0.009858500212430954 -0.0002158000716008246
          0.0008357870974577963 0.010244213044643402 -0.0002158000716008246 -0.0002180000301450491 0.011297999881207943 -0.0002158000716008246
          0.00990721769630909 0.009145552292466164 -0.0002158000716008246 0.00892922654747963 0.00835320632904768 -0.0002158000716008246
          0.010027261450886726 0.007733238860964775 -0.0002158000716008246 0.008615478873252869 0.007154701743274927 -0.0002158000716008246
          0.00892922654747963 0.00835320632904768 -0.0002158000716008246 0.007689102552831173 0.008445752784609795 -0.0002158000716008246
          0.0033902479335665703 0.00844627432525158 -0.0002158000716008246 0.002097740303725004 0.008418154902756214 -0.0002158000716008246