<?xml version="1.0"?>
<VTKFile type="PolyData" version="0.1" byte_order="LittleEndian" header_type="UInt32">
  <PolyData>
    <Piece NumberOfPoints="972" NumberOfVerts="0" NumberOfLines="0" NumberOfStrips="0" NumberOfPolys="324">
      <PointData>
      </PointData>
      <CellData>
        <DataArray type="Float64" Name="normal_stress_average" format="ascii" RangeMin="0" RangeMax="0">
          0 0 0 0 0 0
          0 0 0 0 0 0
          0 0 0 0 0 0
          0 0 0 0 0 0
          0 0 0 0 0 0
          0 0 0 0 0 0
          0 0 0 0 0 0
          0 0 0 0 0 0
          0 0 0 0 0 0
          0 0 0 0 0 0
          0 0 0 0 0 0
          0 0 0 0 0 0
          0 0 0 0 0 0
          0 0 0 0 0 0
          0 0 0 0 0 0
          0 0 0 0 0 0
          0 0 0 0 0 0
          0 0 0 0 0 0
          0 0 0 0 0 0
          0 0 0 0 0 0
          0 0 0 0 0 0
          0 0 0 0 0 0
          0 0 0 0 0 0
          0 0 0 0 0 0
          0 0 0 0 0 0
          0 0 0 0 0 0
          0 0 0 0 0 0
          0 0 0 0 0 0
          0 0 0 0 0 0
          0 0 0 0 0 0
          0 0 0 0 0 0
          0 0 0 0 0 0
          0 0 0 0 0 0
          0 0 0 0 0 0
          0 0 0 0 0 0
          0 0 0 0 0 0
          0 0 0 0 0 0
          0 0 0 0 0 0
          0 0 0 0 0 0
          0 0 0 0 0 0
          0 0 0 0 0 0
          0 0 0 0 0 0
          0 0 0 0 0 0
          0 0 0 0 0 0
          0 0 0 0 0 0
          0 0 0 0 0 0
          0 0 0 0 0 0
          0 0 0 0 0 0
          0 0 0 0 0 0
          0 0 0 0 0 0
          0 0 0 0 0 0
          0 0 0 0 0 0
          0 0 0 0 0 0
          0 0 0 0 0 0
        </DataArray>
        <DataArray type="Float64" Name="shear_stress_average" format="ascii" RangeMin="0" RangeMax="0">
          0 0 0 0 0 0
          0 0 0 0 0 0
          0 0 0 0 0 0
          0 0 0 0 0 0
          0 0 0 0 0 0
          0 0 0 0 0 0
          0 0 0 0 0 0
          0 0 0 0 0 0
          0 0 0 0 0 0
          0 0 0 0 0 0
          0 0 0 0 0 0
          0 0 0 0 0 0
          0 0 0 0 0 0
          0 0 0 0 0 0
          0 0 0 0 0 0
          0 0 0 0 0 0
          0 0 0 0 0 0
          0 0 0 0 0 0
          0 0 0 0 0 0
          0 0 0 0 0 0
          0 0 0 0 0 0
          0 0 0 0 0 0
          0 0 0 0 0 0
          0 0 0 0 0 0
          0 0 0 0 0 0
          0 0 0 0 0 0
          0 0 0 0 0 0
          0 0 0 0 0 0
          0 0 0 0 0 0
          0 0 0 0 0 0
          0 0 0 0 0 0
          0 0 0 0 0 0
          0 0 0 0 0 0
          0 0 0 0 0 0
          0 0 0 0 0 0
          0 0 0 0 0 0
          0 0 0 0 0 0
          0 0 0 0 0 0
          0 0 0 0 0 0
          0 0 0 0 0 0
          0 0 0 0 0 0
          0 0 0 0 0 0
          0 0 0 0 0 0
          0 0 0 0 0 0
          0 0 0 0 0 0
          0 0 0 0 0 0
          0 0 0 0 0 0
          0 0 0 0 0 0
          0 0 0 0 0 0
          0 0 0 0 0 0
          0 0 0 0 0 0
          0 0 0 0 0 0
          0 0 0 0 0 0
          0 0 0 0 0 0
        </DataArray>
      </CellData>
      <Points>
        <DataArray type="Float32" Name="Points" NumberOfComponents="3" format="ascii" RangeMin="0.0008374397776249481" RangeMax="0.02115112128454033">
          0.009286263026297092 0.002326106419786811 -0.000278000021353364 0.010979235172271729 0.0018059222493320704 -0.000278000021353364
          0.010924491100013256 0.0034212195314466953 -0.000278000021353364 0.009441578760743141 0.0038523285184055567 -0.000278000021353364
          0.009286263026297092 0.002326106419786811 -0.000278000021353364 0.010924491100013256 0.0034212195314466953 -0.000278000021353364
          0.0009051672532223165 0.008042068220674992 -0.000278000021353364 0.001802952727302909 0.00643287505954504 -0.000278000021353364
          0.0026116259396076202 0.007786794565618038 -0.000278000021353364 0.010756018571555614 0.0067422217689454556 -0.000278000021353364
          0.010924491100013256 0.008278780616819859 -0.000278000021353364 0.009163683280348778 0.00769281480461359 -0.000278000021353364
          0.009163683280348778 0.00769281480461359 -0.000278000021353364 0.009443593211472034 0.006193951237946749 -0.000278000021353364
          0.010756018571555614 0.0067422217689454556 -0.000278000021353364 0.0009051672532223165 0.008042068220674992 -0.000278000021353364
          0.000468284881208092 0.006659593433141708 -0.000278000021353364 0.001802952727302909 0.00643287505954504 -0.000278000021353364
          0.012326748110353947 0.005849999841302633 -0.000278000021353364 0.010550525039434433 0.00504949688911438 -0.000278000021353364
          0.012326748110353947 0.00423081312328577 -0.000278000021353364 0.0007914680172689259 0.0020072425249964 -0.000278000021353364
          0.002425039652734995 0.002139166695997119 -0.000278000021353364 0.0016773320967331529 0.003560003824532032 -0.000278000021353364
          0.0033869703765958548 0.0007597391377203166 -0.000278000021353364 0.004204161930829287 0.002168530598282814 -0.000278000021353364
          0.002425039652734995 0.002139166695997119 -0.000278000021353364 0.0016773320967331529 0.003560003824532032 -0.000278000021353364
          0.000375043717212975 0.0034212195314466953 -0.000278000021353364 0.0007914680172689259 0.0020072425249964 -0.000278000021353364
          0.010756018571555614 0.0067422217689454556 -0.000278000021353364 0.010550525039434433 0.00504949688911438 -0.000278000021353364
          0.012326748110353947 0.005849999841302633 -0.000278000021353364 0.012326748110353947 0.00423081312328577 -0.000278000021353364
          0.010550525039434433 0.00504949688911438 -0.000278000021353364 0.010924491100013256 0.0034212195314466953 -0.000278000021353364
          0.0008075270452536643 0.005019747652113438 -0.000278000021353364 0.0016773320967331529 0.003560003824532032 -0.000278000021353364
          0.0026116259396076202 0.00498228007927537 -0.000278000021353364 0.0008075270452536643 0.005019747652113438 -0.000278000021353364
          0.0026116259396076202 0.00498228007927537 -0.000278000021353364 0.001802952727302909 0.00643287505954504 -0.000278000021353364
          0.0050079855136573315 0.0035607849713414907 -0.000278000021353364 0.004197997506707907 0.00496429018676281 -0.000278000021353364
          0.0032785239163786173 0.0034909478854388 -0.000278000021353364 0.002425039652734995 0.002139166695997119 -0.000278000021353364
          0.004204161930829287 0.002168530598282814 -0.000278000021353364 0.0032785239163786173 0.0034909478854388 -0.000278000021353364
          0.009891106747090816 0.0007443343056365848 -0.000278000021353364 0.010979235172271729 0.0018059222493320704 -0.000278000021353364
          0.009286263026297092 0.002326106419786811 -0.000278000021353364 0.009443593211472034 0.006193951237946749 -0.000278000021353364
          0.010550525039434433 0.00504949688911438 -0.000278000021353364 0.010756018571555614 0.0067422217689454556 -0.000278000021353364
          0.0032785239163786173 0.0034909478854388 -0.000278000021353364 0.004197997506707907 0.00496429018676281 -0.000278000021353364
          0.0026116259396076202 0.00498228007927537 -0.000278000021353364 0.0032785239163786173 0.0034909478854388 -0.000278000021353364
          0.004204161930829287 0.002168530598282814 -0.000278000021353364 0.0050079855136573315 0.0035607849713414907 -0.000278000021353364
          0.009443593211472034 0.006193951237946749 -0.000278000021353364 0.008819184266030788 0.004999034572392702 -0.000278000021353364
          0.010550525039434433 0.00504949688911438 -0.000278000021353364 0.010550525039434433 0.00504949688911438 -0.000278000021353364
          0.008819184266030788 0.004999034572392702 -0.000278000021353364 0.009441578760743141 0.0038523285184055567 -0.000278000021353364
          0.010924491100013256 0.008278780616819859 -0.000278000021353364 0.009636661037802696 0.009006907232105732 -0.000278000021353364
          0.009163683280348778 0.00769281480461359 -0.000278000021353364 0.0026116259396076202 0.007786794565618038 -0.000278000021353364
          0.0019780567381531 0.009087423793971539 -0.000278000021353364 0.0009051672532223165 0.008042068220674992 -0.000278000021353364
          0.0016773320967331529 0.003560003824532032 -0.000278000021353364 0.0032785239163786173 0.0034909478854388 -0.000278000021353364
          0.0026116259396076202 0.00498228007927537 -0.000278000021353364 0.000712847919203341 0.009822034277021885 -0.000278000021353364
          0.0019780567381531 0.009087423793971539 -0.000278000021353364 0.001802032464183867 0.010924491100013256 -0.000278000021353364
          0.0019780567381531 0.009087423793971539 -0.000278000021353364 0.0027432444039732218 0.010055912658572197 -0.000278000021353364
          0.001802032464183867 0.010924491100013256 -0.000278000021353364 0.009441578760743141 0.0038523285184055567 -0.000278000021353364
          0.008089015260338783 0.0035225588362663984 -0.000278000021353364 0.009286263026297092 0.002326106419786811 -0.000278000021353364
          0.010550525039434433 0.00504949688911438 -0.000278000021353364 0.009441578760743141 0.0038523285184055567 -0.000278000021353364
          0.010924491100013256 0.0034212195314466953 -0.000278000021353364 0.0016773320967331529 0.003560003824532032 -0.000278000021353364
          0.002425039652734995 0.002139166695997119 -0.000278000021353364 0.0032785239163786173 0.0034909478854388 -0.000278000021353364
          0.002425039652734995 0.002139166695997119 -0.000278000021353364 0.0018490971997380257 0.0007052200380712748 -0.000278000021353364
          0.0033869703765958548 0.0007597391377203166 -0.000278000021353364 0.005843573249876499 0.0021744659170508385 -0.000278000021353364
          0.004204161930829287 0.002168530598282814 -0.000278000021353364 0.005033162888139486 0.0007725988980382681 -0.000278000021353364
          0.005033162888139486 0.0007725988980382681 -0.000278000021353364 0.004204161930829287 0.002168530598282814 -0.000278000021353364
          0.0033869703765958548 0.0007597391377203166 -0.000278000021353364 0.0050079855136573315 0.0035607849713414907 -0.000278000021353364
          0.004204161930829287 0.002168530598282814 -0.000278000021353364 0.005843573249876499 0.0021744659170508385 -0.000278000021353364
          0.009088373742997646 -0.0006267479620873928 -0.000278000021353364 0.00827763695269823 0.000770313257817179 -0.000278000021353364
          0.0074691870249807835 -0.0006267479620873928 -0.000278000021353364 0.012326748110353947 0.009088373742997646 -0.000278000021353364
          0.010924491100013256 0.008278780616819859 -0.000278000021353364 0.012326748110353947 0.0074691870249807835 -0.000278000021353364
          0.0026116259396076202 0.012326748110353947 -0.000278000021353364 0.0034212195314466953 0.010924491100013256 -0.000278000021353364
          0.00423081312328577 0.012326748110353947 -0.000278000021353364 0.00827763695269823 0.000770313257817179 -0.000278000021353364
          0.009286263026297092 0.002326106419786811 -0.000278000021353364 0.007433413062244654 0.002156356116756797 -0.000278000021353364
          0.00827763695269823 0.000770313257817179 -0.000278000021353364 0.007433413062244654 0.002156356116756797 -0.000278000021353364
          0.006659593433141708 0.0007755091064609587 -0.000278000021353364 0.005849999841302633 0.012326748110353947 -0.000278000021353364
          0.006659593433141708 0.010924491100013256 -0.000278000021353364 0.0074691870249807835 0.012326748110353947 -0.000278000021353364
          0.0050404067151248455 0.010924491100013256 -0.000278000021353364 0.006659593433141708 0.010924491100013256 -0.000278000021353364
          0.005849999841302633 0.012326748110353947 -0.000278000021353364 0.004229171667248011 0.007787285838276148 -0.000278000021353364
          0.0034318112302571535 0.00911908783018589 -0.000278000021353364 0.0026116259396076202 0.007786794565618038 -0.000278000021353364
          0.005849999841302633 -0.0006267479620873928 -0.000278000021353364 0.005033162888139486 0.0007725988980382681 -0.000278000021353364
          0.00423081312328577 -0.0006267479620873928 -0.000278000021353364 0.007433413062244654 0.002156356116756797 -0.000278000021353364
          0.005843573249876499 0.0021744659170508385 -0.000278000021353364 0.006659593433141708 0.0007755091064609587 -0.000278000021353364
          0.005843573249876499 0.0021744659170508385 -0.000278000021353364 0.005033162888139486 0.0007725988980382681 -0.000278000021353364
          0.006659593433141708 0.0007755091064609587 -0.000278000021353364 0.009891106747090816 0.0007443343056365848 -0.000278000021353364
          0.009286263026297092 0.002326106419786811 -0.000278000021353364 0.00827763695269823 0.000770313257817179 -0.000278000021353364
          0.006616976577788591 0.0035553607158362865 -0.000278000021353364 0.0050079855136573315 0.0035607849713414907 -0.000278000021353364
          0.005843573249876499 0.0021744659170508385 -0.000278000021353364 0.006616976577788591 0.0035553607158362865 -0.000278000021353364
          0.007314463146030903 0.004978253040462732 -0.000278000021353364 0.005843619350343943 0.004978547338396311 -0.000278000021353364
          0.004229171667248011 0.007787285838276148 -0.000278000021353364 0.0034187855198979378 0.0063851941376924515 -0.000278000021353364
          0.005027444567531347 0.006387985777109861 -0.000278000021353364 0.001802952727302909 0.00643287505954504 -0.000278000021353364
          0.0026116259396076202 0.00498228007927537 -0.000278000021353364 0.0034187855198979378 0.0063851941376924515 -0.000278000021353364
          0.00423081312328577 -0.0006267479620873928 -0.000278000021353364 0.005033162888139486 0.0007725988980382681 -0.000278000021353364
          0.0033869703765958548 0.0007597391377203166 -0.000278000021353364 0.0074691870249807835 -0.0006267479620873928 -0.000278000021353364
          0.00827763695269823 0.000770313257817179 -0.000278000021353364 0.006659593433141708 0.0007755091064609587 -0.000278000021353364
          0.009891106747090816 0.0007443343056365848 -0.000278000021353364 0.00827763695269823 0.000770313257817179 -0.000278000021353364
          0.009088373742997646 -0.0006267479620873928 -0.000278000021353364 0.012326748110353947 0.0074691870249807835 -0.000278000021353364
          0.010924491100013256 0.008278780616819859 -0.000278000021353364 0.010756018571555614 0.0067422217689454556 -0.000278000021353364
          0.010762359946966171 0.009905618615448475 -0.000278000021353364 0.010924491100013256 0.008278780616819859 -0.000278000021353364
          0.012326748110353947 0.009088373742997646 -0.000278000021353364 0.0074691870249807835 0.012326748110353947 -0.000278000021353364
          0.006659593433141708 0.010924491100013256 -0.000278000021353364 0.008274753578007221 0.010973195545375347 -0.000278000021353364
          0.00423081312328577 0.012326748110353947 -0.000278000021353364 0.0034212195314466953 0.010924491100013256 -0.000278000021353364
          0.0050404067151248455 0.010924491100013256 -0.000278000021353364 0.001802032464183867 0.010924491100013256 -0.000278000021353364
          0.0034212195314466953 0.010924491100013256 -0.000278000021353364 0.0026116259396076202 0.012326748110353947 -0.000278000021353364
          0.006616976577788591 0.0035553607158362865 -0.000278000021353364 0.005843619350343943 0.004978547338396311 -0.000278000021353364
          0.0050079855136573315 0.0035607849713414907 -0.000278000021353364 0.005843619350343943 0.004978547338396311 -0.000278000021353364
          0.004197997506707907 0.00496429018676281 -0.000278000021353364 0.0050079855136573315 0.0035607849713414907 -0.000278000021353364
          0.007314463146030903 0.004978253040462732 -0.000278000021353364 0.006588201969861984 0.006408959627151489 -0.000278000021353364
          0.005843619350343943 0.004978547338396311 -0.000278000021353364 0.006588201969861984 0.006408959627151489 -0.000278000021353364
          0.007410404738038778 0.007817354053258896 -0.000278000021353364 0.005835941061377525 0.007791439536958933 -0.000278000021353364
          0.007410404738038778 0.007817354053258896 -0.000278000021353364 0.006659593433141708 0.009189051575958729 -0.000278000021353364
          0.005835941061377525 0.007791439536958933 -0.000278000021353364 0.006659593433141708 0.009189051575958729 -0.000278000021353364
          0.0050404067151248455 0.009189051575958729 -0.000278000021353364 0.005835941061377525 0.007791439536958933 -0.000278000021353364
          0.0026116259396076202 0.007786794565618038 -0.000278000021353364 0.001802952727302909 0.00643287505954504 -0.000278000021353364
          0.0034187855198979378 0.0063851941376924515 -0.000278000021353364 0.0074691870249807835 -0.0006267479620873928 -0.000278000021353364
          0.006659593433141708 0.0007755091064609587 -0.000278000021353364 0.005849999841302633 -0.0006267479620873928 -0.000278000021353364
          0.010707560926675797 -0.0006267479620873928 -0.000278000021353364 0.009891106747090816 0.0007443343056365848 -0.000278000021353364
          0.009088373742997646 -0.0006267479620873928 -0.000278000021353364 0.012326748110353947 0.0074691870249807835 -0.000278000021353364
          0.010756018571555614 0.0067422217689454556 -0.000278000021353364 0.012326748110353947 0.005849999841302633 -0.000278000021353364
          0.012326748110353947 0.010707560926675797 -0.000278000021353364 0.010762359946966171 0.009905618615448475 -0.000278000021353364
          0.012326748110353947 0.009088373742997646 -0.000278000021353364 0.00423081312328577 0.012326748110353947 -0.000278000021353364
          0.0050404067151248455 0.010924491100013256 -0.000278000021353364 0.005849999841302633 0.012326748110353947 -0.000278000021353364
          0.0009924389887601137 0.012326748110353947 -0.000278000021353364 0.001802032464183867 0.010924491100013256 -0.000278000021353364
          0.0026116259396076202 0.012326748110353947 -0.000278000021353364 -0.0006267479620873928 0.00423081312328577 -0.000278000021353364
          0.0008075270452536643 0.005019747652113438 -0.000278000021353364 -0.0006267479620873928 0.005849999841302633 -0.000278000021353364
          -0.0006267479620873928 0.0009924389887601137 -0.000278000021353364 0.0007914680172689259 0.0020072425249964 -0.000278000021353364
          -0.0006267479620873928 0.0026116259396076202 -0.000278000021353364 0.006588201969861984 0.006408959627151489 -0.000278000021353364
          0.005835941061377525 0.007791439536958933 -0.000278000021353364 0.005027444567531347 0.006387985777109861 -0.000278000021353364
          0.007410404738038778 0.007817354053258896 -0.000278000021353364 0.008257812820374966 0.009092837572097778 -0.000278000021353364
          0.006659593433141708 0.009189051575958729 -0.000278000021353364 0.004229171667248011 0.007787285838276148 -0.000278000021353364
          0.0026116259396076202 0.007786794565618038 -0.000278000021353364 0.0034187855198979378 0.0063851941376924515 -0.000278000021353364
          0.00423081312328577 -0.0006267479620873928 -0.000278000021353364 0.0033869703765958548 0.0007597391377203166 -0.000278000021353364
          0.0026116259396076202 -0.0006267479620873928 -0.000278000021353364 0.006659593433141708 0.0007755091064609587 -0.000278000021353364
          0.005033162888139486 0.0007725988980382681 -0.000278000021353364 0.005849999841302633 -0.0006267479620873928 -0.000278000021353364
          0.012326748110353947 0.00423081312328577 -0.000278000021353364 0.010924491100013256 0.0034212195314466953 -0.000278000021353364
          0.012326748110353947 0.0026116259396076202 -0.000278000021353364 0.0074691870249807835 0.012326748110353947 -0.000278000021353364
          0.008274753578007221 0.010973195545375347 -0.000278000021353364 0.009088373742997646 0.012326748110353947 -0.000278000021353364
          -0.0006267479620873928 0.0074691870249807835 -0.000278000021353364 0.0009051672532223165 0.008042068220674992 -0.000278000021353364
          -0.0006267479620873928 0.009088373742997646 -0.000278000021353364 0.007433413062244654 0.002156356116756797 -0.000278000021353364
          0.006616976577788591 0.0035553607158362865 -0.000278000021353364 0.005843573249876499 0.0021744659170508385 -0.000278000021353364
          0.006588201969861984 0.006408959627151489 -0.000278000021353364 0.005027444567531347 0.006387985777109861 -0.000278000021353364
          0.005843619350343943 0.004978547338396311 -0.000278000021353364 0.005027444567531347 0.006387985777109861 -0.000278000021353364
          0.004197997506707907 0.00496429018676281 -0.000278000021353364 0.005843619350343943 0.004978547338396311 -0.000278000021353364
          0.005835941061377525 0.007791439536958933 -0.000278000021353364 0.004229171667248011 0.007787285838276148 -0.000278000021353364
          0.005027444567531347 0.006387985777109861 -0.000278000021353364 0.0034187855198979378 0.0063851941376924515 -0.000278000021353364
          0.004197997506707907 0.00496429018676281 -0.000278000021353364 0.005027444567531347 0.006387985777109861 -0.000278000021353364
          0.005835941061377525 0.007791439536958933 -0.000278000021353364 0.0050404067151248455 0.009189051575958729 -0.000278000021353364
          0.004229171667248011 0.007787285838276148 -0.000278000021353364 0.007410404738038778 0.007817354053258896 -0.000278000021353364
          0.009163683280348778 0.00769281480461359 -0.000278000021353364 0.008257812820374966 0.009092837572097778 -0.000278000021353364
          0.004229171667248011 0.007787285838276148 -0.000278000021353364 0.0050404067151248455 0.009189051575958729 -0.000278000021353364
          0.0034318112302571535 0.00911908783018589 -0.000278000021353364 0.0026116259396076202 0.00498228007927537 -0.000278000021353364
          0.004197997506707907 0.00496429018676281 -0.000278000021353364 0.0034187855198979378 0.0063851941376924515 -0.000278000021353364
          0.009163683280348778 0.00769281480461359 -0.000278000021353364 0.008075930178165436 0.0063976203091442585 -0.000278000021353364
          0.009443593211472034 0.006193951237946749 -0.000278000021353364 0.009841571561992168 0.011123036034405231 -0.000278000021353364
          0.00907495990395546 0.010064484551548958 -0.000278000021353364 0.010762359946966171 0.009905618615448475 -0.000278000021353364
          0.010762359946966171 0.009905618615448475 -0.000278000021353364 0.00907495990395546 0.010064484551548958 -0.000278000021353364
          0.009636661037802696 0.009006907232105732 -0.000278000021353364 0.012326748110353947 0.0026116259396076202 -0.000278000021353364
          0.010979235172271729 0.0018059222493320704 -0.000278000021353364 0.012326748110353947 0.0009924389887601137 -0.000278000021353364
          0.009088373742997646 0.012326748110353947 -0.000278000021353364 0.009841571561992168 0.011123036034405231 -0.000278000021353364
          0.010707560926675797 0.012326748110353947 -0.000278000021353364 -0.0006267479620873928 0.009088373742997646 -0.000278000021353364
          0.000712847919203341 0.009822034277021885 -0.000278000021353364 -0.0006267479620873928 0.010707560926675797 -0.000278000021353364
          0.001802952727302909 0.00643287505954504 -0.000278000021353364 0.000468284881208092 0.006659593433141708 -0.000278000021353364
          0.0008075270452536643 0.005019747652113438 -0.000278000021353364 0.0026116259396076202 -0.0006267479620873928 -0.000278000021353364
          0.0018490971997380257 0.0007052200380712748 -0.000278000021353364 0.0009924389887601137 -0.0006267479620873928 -0.000278000021353364
          0.0033869703765958548 0.0007597391377203166 -0.000278000021353364 0.0018490971997380257 0.0007052200380712748 -0.000278000021353364
          0.0026116259396076202 -0.0006267479620873928 -0.000278000021353364 0.0008075270452536643 0.005019747652113438 -0.000278000021353364
          0.000375043717212975 0.0034212195314466953 -0.000278000021353364 0.0016773320967331529 0.003560003824532032 -0.000278000021353364
          0.010924491100013256 0.0034212195314466953 -0.000278000021353364 0.010979235172271729 0.0018059222493320704 -0.000278000021353364
          0.012326748110353947 0.0026116259396076202 -0.000278000021353364 0.008274753578007221 0.010973195545375347 -0.000278000021353364
          0.009841571561992168 0.011123036034405231 -0.000278000021353364 0.009088373742997646 0.012326748110353947 -0.000278000021353364
          0.0009051672532223165 0.008042068220674992 -0.000278000021353364 0.000712847919203341 0.009822034277021885 -0.000278000021353364
          -0.0006267479620873928 0.009088373742997646 -0.000278000021353364 0.007314463146030903 0.004978253040462732 -0.000278000021353364
          0.008819184266030788 0.004999034572392702 -0.000278000021353364 0.008075930178165436 0.0063976203091442585 -0.000278000021353364
          0.0007914680172689259 0.0020072425249964 -0.000278000021353364 0.0018490971997380257 0.0007052200380712748 -0.000278000021353364
          0.002425039652734995 0.002139166695997119 -0.000278000021353364 0.009286263026297092 0.002326106419786811 -0.000278000021353364
          0.008089015260338783 0.0035225588362663984 -0.000278000021353364 0.007433413062244654 0.002156356116756797 -0.000278000021353364
          0.006616976577788591 0.0035553607158362865 -0.000278000021353364 0.008089015260338783 0.0035225588362663984 -0.000278000021353364
          0.007314463146030903 0.004978253040462732 -0.000278000021353364 0.0008075270452536643 0.005019747652113438 -0.000278000021353364
          0.000468284881208092 0.006659593433141708 -0.000278000021353364 -0.0006267479620873928 0.005849999841302633 -0.000278000021353364
          -0.0006267479620873928 0.0074691870249807835 -0.000278000021353364 0.000468284881208092 0.006659593433141708 -0.000278000021353364
          0.0009051672532223165 0.008042068220674992 -0.000278000021353364 0.007314463146030903 0.004978253040462732 -0.000278000021353364
          0.008075930178165436 0.0063976203091442585 -0.000278000021353364 0.006588201969861984 0.006408959627151489 -0.000278000021353364
          0.007410404738038778 0.007817354053258896 -0.000278000021353364 0.008075930178165436 0.0063976203091442585 -0.000278000021353364
          0.009163683280348778 0.00769281480461359 -0.000278000021353364 0.0007914680172689259 0.0020072425249964 -0.000278000021353364
          0.000375043717212975 0.0034212195314466953 -0.000278000021353364 -0.0006267479620873928 0.0026116259396076202 -0.000278000021353364
          -0.0006267479620873928 0.00423081312328577 -0.000278000021353364 0.000375043717212975 0.0034212195314466953 -0.000278000021353364
          0.0008075270452536643 0.005019747652113438 -0.000278000021353364 -0.0006267479620873928 -0.0006267479620873928 -0.000278000021353364
          0.0005585791659541428 0.0005585791659541428 -0.000278000021353364 -0.0006267479620873928 0.0009924389887601137 -0.000278000021353364
          0.012326748110353947 -0.0006267479620873928 -0.000278000021353364 0.011141421273350716 0.0005585791659541428 -0.000278000021353364
          0.010707560926675797 -0.0006267479620873928 -0.000278000021353364 0.012326748110353947 0.012326748110353947 -0.000278000021353364
          0.011141421273350716 0.011141421273350716 -0.000278000021353364 0.012326748110353947 0.010707560926675797 -0.000278000021353364
          -0.0006267479620873928 0.012326748110353947 -0.000278000021353364 0.0005585791659541428 0.011141421273350716 -0.000278000021353364
          0.0009924389887601137 0.012326748110353947 -0.000278000021353364 0.0009924389887601137 -0.0006267479620873928 -0.000278000021353364
          0.0005585791659541428 0.0005585791659541428 -0.000278000021353364 -0.0006267479620873928 -0.0006267479620873928 -0.000278000021353364
          0.012326748110353947 0.0009924389887601137 -0.000278000021353364 0.011141421273350716 0.0005585791659541428 -0.000278000021353364
          0.012326748110353947 -0.0006267479620873928 -0.000278000021353364 0.010707560926675797 0.012326748110353947 -0.000278000021353364
          0.011141421273350716 0.011141421273350716 -0.000278000021353364 0.012326748110353947 0.012326748110353947 -0.000278000021353364
          -0.0006267479620873928 0.010707560926675797 -0.000278000021353364 0.0005585791659541428 0.011141421273350716 -0.000278000021353364
          -0.0006267479620873928 0.012326748110353947 -0.000278000021353364 0.008089015260338783 0.0035225588362663984 -0.000278000021353364
          0.008819184266030788 0.004999034572392702 -0.000278000021353364 0.007314463146030903 0.004978253040462732 -0.000278000021353364
          0.009163683280348778 0.00769281480461359 -0.000278000021353364 0.009636661037802696 0.009006907232105732 -0.000278000021353364
          0.008257812820374966 0.009092837572097778 -0.000278000021353364 0.010762359946966171 0.009905618615448475 -0.000278000021353364
          0.009636661037802696 0.009006907232105732 -0.000278000021353364 0.010924491100013256 0.008278780616819859 -0.000278000021353364
          0.0034318112302571535 0.00911908783018589 -0.000278000021353364 0.0019780567381531 0.009087423793971539 -0.000278000021353364
          0.0026116259396076202 0.007786794565618038 -0.000278000021353364 0.008075930178165436 0.0063976203091442585 -0.000278000021353364
          0.008819184266030788 0.004999034572392702 -0.000278000021353364 0.009443593211472034 0.006193951237946749 -0.000278000021353364
          0.007433413062244654 0.002156356116756797 -0.000278000021353364 0.008089015260338783 0.0035225588362663984 -0.000278000021353364
          0.006616976577788591 0.0035553607158362865 -0.000278000021353364 0.0009051672532223165 0.008042068220674992 -0.000278000021353364
          0.0019780567381531 0.009087423793971539 -0.000278000021353364 0.000712847919203341 0.009822034277021885 -0.000278000021353364
          -0.0006267479620873928 0.005849999841302633 -0.000278000021353364 0.000468284881208092 0.006659593433141708 -0.000278000021353364