<?xml version="1.0"?>
<VTKFile type="PolyData" version="0.1" byte_order="LittleEndian" header_type="UInt32">
  <PolyData>
    <Piece NumberOfPoints="15625" NumberOfVerts="15625" NumberOfLines="0" NumberOfStrips="0" NumberOfPolys="0">
      <PointData>
        <DataArray type="Int32" Name="id" format="ascii" RangeMin="1" RangeMax="15625">
          1 2 3 4 5 6
          7 8 9 10 11 12
          13 26 27 28 29 30
          31 32 33 34 35 36
          37 51 52 53 54 55
          56 57 58 59 60 61
          62 76 77 78 79 80
          81 82 83 84 85 86
          87 88 101 102 103 105
          106 107 108 109 110 111
          112 104 126 127 128 129
          130 131 132 133 134 135
          136 137 151 152 153 154
          155 156 157 158 159 160
          161 162 176 177 178 179
          180 181 182 183 184 185
          186 187 201 202 203 205
          206 207 208 209 210 211
          212 204 226 227 228 229
          230 231 232 233 234 235
          236 237 251 252 253 254
          255 256 257 258 259 260
          261 262 263 276 277 278
          279 280 281 282 283 284
          285 286 287 301 302 303
          304 305 306 307 308 309
          310 311 312 326 327 328
          329 330 331 332 333 334
          335 336 337 351 352 353
          354 355 356 357 358 359
          360 361 362 376 377 378
          379 380 381 382 383 384
          385 386 387 406 401 402
          403 404 405 407 408 409
          410 411 412 413 426 427
          428 429 430 431 432 433
          434 435 436 437 451 452
          453 454 455 456 457 458
          459 460 461 462 476 477
          478 479 480 481 482 483
          484 485 486 487 501 502
          503 504 505 506 507 508
          509 510 511 512 526 527
          528 529 530 531 532 533
          534 535 536 537 551 552
          553 554 555 556 557 558
          559 560 561 562 576 577
          578 579 580 581 582 583
          584 585 586 587 601 602
          603 604 605 606 607 608
          609 610 611 612 626 627
          628 629 630 631 632 633
          634 635 636 637 651 652
          653 654 655 656 657 658
          659 660 661 662 676 677
          678 679 680 681 682 683
          684 685 686 687 688 701
          702 703 704 705 706 707
          708 709 710 711 712 713
          726 727 728 730 732 733
          734 735 736 738 729 731
          737 751 752 753 754 755
          756 757 758 759 760 761
          762 763 776 777 778 779
          780 781 782 783 784 785
          786 787 788 801 802 803
          804 805 806 807 808 809
          810 811 812 826 827 830
          831 832 834 835 836 828
          829 833 837 851 852 853
          854 855 856 857 858 859
          860 861 862 863 876 877
          878 879 880 881 882 883
          884 885 886 887 888 901
          902 903 904 905 906 907
          908 909 910 911 912 926
          928 929 931 934 927 930
          932 933 935 936 937 951
          952 953 954 955 956 957
          958 959 960 961 962 976
          977 978 979 980 981 982
          983 984 985 986 987 1001
          1002 1003 1004 1005 1006 1007
          1008 1009 1010 1011 1012 1013
          1026 1032 1027 1028 1029 1030
          1031 1033 1034 1035 1036 1037
          1051 1052 1053 1054 1055 1056
          1057 1058 1059 1060 1061 1062
          1076 1077 1078 1079 1080 1081
          1082 1083 1084 1085 1086 1087
          1088 1101 1102 1103 1104 1105
          1106 1107 1108 1109 1110 1111
          1112 1126 1127 1128 1129 1130
          1131 1132 1133 1134 1135 1136
          1137 1138 1151 1152 1153 1154
          1155 1156 1157 1158 1159 1160
          1161 1162 1163 1176 1177 1178
          1179 1180 1181 1182 1183 1184
          1185 1186 1187 1188 1201 1202
          1203 1204 1205 1206 1207 1208
          1209 1210 1211 1212 1226 1227
          1228 1229 1230 1231 1232 1233
          1234 1235 1236 1237 1238 1251
          1252 1253 1254 1255 1256 1257
          1258 1259 1260 1261 1262 1276
          1277 1278 1279 1280 1281 1282
          1283 1284 1285 1286 1287 1301
          1302 1303 1304 1305 1306 1307
          1308 1309 1310 1311 1312 1326
          1327 1328 1329 1330 1331 1332
          1333 1334 1335 1336 1337 1338
          1351 1352 1353 1354 1355 1356
          1359 1360 1357 1358 1361 1362
          1376 1377 1378 1379 1380 1381
          1382 1383 1384 1385 1386 1387
          1388 1401 1402 1403 1404 1405
          1406 1407 1408 1409 1410 1411
          1412 1426 1427 1428 1429 1430
          1431 1432 1433 1434 1435 1436
          1437 1438 1454 1455 1457 1460
          1461 1462 1463 1451 1452 1453
          1456 1458 1459 1476 1477 1478
          1479 1480 1481 1482 1483 1484
          1485 1486 1487 1488 1501 1502
          1503 1504 1505 1506 1507 1508
          1509 1510 1511 1512 1526 1527
          1528 1529 1530 1531 1532 1533
          1534 1535 1536 1537 1554 1555
          1558 1559 1563 1551 1552 1553
          1556 1557 1560 1561 1562 1576
          1577 1578 1579 1580 1581 1582
          1583 1584 1585 1586 1587 1601
          1602 1603 1604 1605 1606 1607
          1608 1609 1610 1611 1612 1613
          1626 1627 1628 1629 1630 1631
          1632 1633 1634 1635 1636 1637
          1654 1657 1661 1651 1652 1653
          1655 1656 1658 1659 1660 1662
          1676 1677 1678 1679 1680 1681
          1682 1683 1684 1685 1686 1687
          1701 1702 1703 1704 1705 1706
          1707 1708 1709 1710 1711 1712
          1726 1727 1728 1729 1730 1731
          1732 1733 1734 1735 1736 1737
          1751 1752 1753 1754 1755 1756
          1757 1758 1759 1760 1761 1762
          1776 1777 1778 1779 1780 1781
          1782 1783 1784 1785 1786 1787
          1801 1802 1803 1804 1805 1806
          1807 1808 1809 1810 1811 1812
          1826 1827 1828 1829 1830 1831
          1832 1833 1834 1835 1836 1837
          1851 1852 1853 1854 1855 1856
          1857 1858 1859 1860 1861 1862
          1863 1876 1877 1878 1879 1880
          1881 1882 1883 1884 1885 1886
          1887 1901 1902 1903 1904 1905
          1906 1907 1908 1909 1910 1911
          1912 1926 1927 1928 1929 1930
          1931 1932 1933 1934 1935 1936
          1937 1951 1952 1953 1954 1955
          1956 1957 1958 1959 1960 1961
          1962 1963 1976 1977 1978 1979
          1980 1982 1983 1984 1985 1986
          1988 1981 1987 2001 2002 2003
          2004 2005 2006 2007 2008 2009
          2010 2011 2012 2013 2026 2027
          2028 2029 2030 2031 2032 2033
          2034 2035 2036 2037 2051 2052
          2053 2054 2055 2056 2057 2058
          2059 2060 2061 2062 2076 2077
          2078 2079 2083 2087 2080 2081
          2082 2084 2085 2086 2101 2102
          2103 2104 2105 2106 2107 2108
          2109 2110 2111 2112 2126 2127
          2128 2129 2130 2131 2132 2133
          2134 2135 2136 2137 2151 2152
          2153 2154 2155 2156 2157 2158
          2159 2160 2161 2162 2163 2176
          2180 2184 2187 2177 2178 2179
          2181 2182 2183 2185 2186 2201
          2202 2203 2204 2205 2206 2207
          2208 2209 2210 2211 2212 2213
          2226 2227 2228 2229 2230 2231
          2232 2233 2234 2235 2236 2237
          2251 2252 2253 2254 2255 2256
          2257 2258 2259 2260 2261 2262
          2277 2276 2278 2279 2280 2281
          2282 2283 2284 2285 2286 2287
          2301 2302 2303 2304 2305 2306
          2307 2308 2309 2310 2311 2312
          2313 2326 2327 2328 2329 2330
          2331 2332 2333 2334 2335 2336
          2337 2351 2352 2353 2354 2355
          2356 2357 2358 2359 2360 2361
          2362 2376 2377 2378 2379 2380
          2381 2382 2383 2384 2385 2386
          2387 2388 2401 2402 2403 2404
          2405 2406 2407 2408 2409 2410
          2411 2412 2426 2427 2428 2429
          2430 2431 2432 2433 2434 2435
          2436 2437 2438 2451 2452 2453
          2454 2455 2456 2457 2458 2459
          2460 2461 2462 2463 2476 2477
          2478 2479 2480 2481 2482 2483
          2484 2485 2486 2487 2488 2501
          2503 2504 2505 2507 2508 2509
          2510 2511 2512 2526 2527 2528
          2529 2530 2531 2532 2533 2534
          2535 2536 2537 2551 2552 2554
          2555 2557 2559 2560 2561 2562
          2576 2578 2580 2581 2582 2583
          2584 2585 2587 2601 2602 2603
          2604 2605 2607 2608 2609 2611
          2612 2613 2626 2627 2628 2629
          2631 2632 2633 2634 2635 2636
          2651 2653 2654 2655 2657 2658
          2659 2660 2661 2662 2677 2678
          2679 2680 2681 2682 2683 2684
          2685 2686 2687 2701 2703 2707
          2708 2709 2711 2712 2713 2702
          2705 2706 2726 2727 2728 2729
          2730 2731 2732 2733 2734 2735
          2736 2737 2738 2751 2753 2754
          2755 2756 2757 2758 2759 2760
          2761 2762 2763 2776 2777 2778
          2779 2780 2782 2783 2784 2785
          2787 2808 2813 2801 2802 2803
          2804 2805 2806 2807 2809 2810
          2811 2812 2826 2827 2828 2829
          2831 2832 2833 2834 2835 2836
          2851 2852 2853 2854 2855 2856
          2857 2858 2859 2860 2862 2863
          2876 2877 2878 2879 2880 2881
          2882 2884 2885 2886 2887 2904
          2910 2901 2902 2903 2905 2906
          2907 2908 2909 2911 2912 2913
          2927 2928 2929 2930 2931 2932
          2934 2935 2936 2937 2951 2952
          2953 2954 2955 2956 2957 2959
          2960 2961 2962 2963 2976 2978
          2979 2980 2981 2982 2983 2985
          2986 2987 2988 3001 3002 3003
          3004 3005 3006 3007 3008 3009
          3010 3011 3012 3013 3026 3027
          3028 3030 3031 3032 3033 3034
          3036 3037 3038 3054 3055 3057
          3059 3060 3061 3062 3076 3077
          3078 3079 3080 3081 3082 3083
          3084 3086 3101 3102 3103 3104
          3105 3106 3107 3108 3109 3110
          3111 3112 3113 2502 2506 2553
          2556 2558 2577 2579 2586 2606
          2610 2630 2637 2652 2656 2676
          2704 2710 2752 2781 2786 2830
          2837 2861 2883 2926 2933 2958
          2977 2984 3029 3035 3051 3052
          3053 3056 3058 3085 3087 3126
          3127 3128 3129 3130 3131 3132
          3133 3134 3135 3136 3137 3151
          3152 3153 3154 3155 3156 3157
          3158 3159 3160 3161 3162 3176
          3177 3178 3179 3180 3181 3182
          3183 3184 3185 3186 3187 3188
          3201 3202 3203 3204 3205 3206
          3207 3208 3209 3210 3211 3212
          3213 3226 3227 3228 3229 3230
          3232 3234 3235 3236 3237 3231
          3233 3251 3252 3253 3254 3255
          3256 3257 3258 3259 3260 3261
          3262 3276 3277 3278 3279 3280
          3281 3282 3283 3284 3285 3286
          3287 3301 3302 3303 3304 3305
          3306 3307 3308 3309 3310 3311
          3312 3326 3328 3329 3330 3331
          3333 3334 3335 3337 3327 3332
          3336 3351 3352 3353 3354 3355
          3356 3357 3358 3359 3360 3361
          3362 3376 3377 3378 3379 3380
          3381 3382 3383 3384 3385 3386
          3387 3401 3402 3403 3404 3405
          3406 3407 3408 3409 3410 3411
          3412 3426 3428 3431 3434 3436
          3437 3427 3429 3430 3432 3433
          3435 3438 3451 3452 3453 3454
          3455 3456 3457 3458 3459 3460
          3461 3462 3463 3476 3477 3478
          3479 3480 3481 3482 3483 3484
          3485 3486 3487 3488 3501 3502
          3503 3504 3505 3506 3507 3508
          3509 3510 3511 3512 3532 3536
          3526 3527 3528 3529 3530 3531
          3533 3534 3535 3537 3551 3552
          3553 3554 3555 3556 3557 3558
          3559 3560 3561 3562 3563 3576
          3577 3578 3579 3580 3581 3582
          3583 3584 3585 3586 3587 3601
          3602 3603 3604 3605 3606 3607
          3608 3609 3610 3611 3612 3626
          3627 3628 3629 3630 3631 3632
          3633 3634 3635 3636 3637 3651
          3652 3653 3654 3655 3656 3657
          3658 3659 3660 3661 3662 3663
          3676 3677 3678 3679 3680 3681
          3682 3683 3684 3685 3686 3687
          3688 3701 3702 3703 3704 3705
          3706 3707 3708 3709 3710 3711
          3712 3726 3727 3728 3729 3730
          3731 3732 3733 3734 3735 3736
          3737 3751 3752 3753 3754 3755
          3756 3757 3758 3759 3760 3761
          3762 3776 3777 3778 3779 3780
          3781 3782 3783 3784 3785 3786
          3787 3801 3802 3803 3804 3805
          3806 3807 3808 3809 3810 3811
          3812 3813 3826 3827 3828 3829
          3830 3831 3832 3833 3834 3835
          3836 3837 3838 3851 3854 3856
          3857 3858 3859 3860 3861 3862
          3852 3853 3855 3876 3877 3878
          3879 3880 3881 3882 3883 3884
          3885 3886 3887 3888 3901 3902
          3903 3904 3905 3906 3907 3908
          3909 3910 3911 3912 3913 3926
          3927 3928 3929 3930 3931 3932
          3933 3934 3935 3936 3937 3938
          3951 3953 3954 3955 3958 3961
          3962 3952 3956 3957 3959 3960
          3976 3977 3978 3979 3980 3981
          3982 3983 3984 3985 3986 3987
          3988 4001 4002 4003 4004 4005
          4006 4007 4008 4009 4010 4011
          4012 4026 4027 4028 4029 4030
          4031 4032 4033 4034 4035 4036
          4037 4055 4058 4059 4060 4061
          4051 4052 4053 4054 4056 4057
          4062 4076 4077 4078 4079 4080
          4081 4082 4083 4084 4085 4086
          4087 4101 4102 4103 4104 4105
          4106 4107 4108 4109 4110 4111
          4112 4113 4126 4127 4128 4129
          4130 4131 4132 4133 4134 4135
          4136 4137 4153 4155 4151 4152
          4154 4156 4157 4158 4159 4160
          4161 4162 4176 4177 4178 4179
          4180 4181 4182 4183 4184 4185
          4186 4187 4201 4202 4203 4204
          4205 4206 4207 4208 4209 4210
          4211 4212 4213 4226 4227 4228
          4229 4230 4231 4232 4233 4234
          4235 4236 4237 4238 4251 4252
          4253 4254 4255 4256 4257 4258
          4259 4260 4261 4262 4276 4277
          4278 4279 4280 4281 4282 4283
          4284 4285 4286 4287 4288 4301
          4302 4303 4304 4305 4306 4307
          4308 4309 4310 4311 4312 4326
          4327 4328 4329 4330 4331 4332
          4333 4334 4335 4336 4337 4351
          4352 4353 4354 4355 4356 4357
          4358 4359 4360 4361 4362 4376
          4377 4378 4379 4380 4381 4382
          4383 4384 4385 4386 4387 4401
          4402 4403 4404 4405 4406 4407
          4408 4409 4410 4411 4412 4413
          4426 4427 4428 4429 4430 4431
          4432 4433 4434 4435 4436 4437
          4438 4451 4452 4453 4454 4455
          4456 4457 4458 4459 4460 4461
          4462 4476 4477 4478 4479 4480
          4481 4483 4484 4485 4487 4488
          4482 4486 4501 4502 4503 4504
          4505 4506 4507 4508 4509 4510
          4511 4512 4513 4526 4527 4528
          4529 4530 4531 4532 4533 4534
          4535 4536 4537 4551 4552 4553
          4554 4555 4556 4557 4558 4559
          4560 4561 4562 4563 4576 4577
          4579 4580 4582 4583 4584 4585
          4578 4581 4586 4587 4601 4602
          4603 4604 4605 4606 4607 4608
          4609 4610 4611 4612 4626 4627
          4628 4629 4630 4631 4632 4633
          4634 4635 4636 4637 4638 4651
          4652 4653 4654 4655 4656 4657
          4658 4659 4660 4661 4662 4663
          4677 4678 4680 4683 4684 4685
          4687 4688 4676 4679 4681 4682
          4686 4701 4702 4703 4704 4705
          4706 4707 4708 4709 4710 4711
          4712 4726 4727 4728 4729 4730
          4731 4732 4733 4734 4735 4736
          4737 4738 4751 4752 4753 4754
          4755 4756 4757 4758 4759 4760
          4761 4762 4783 4785 4776 4777
          4778 4779 4780 4781 4782 4784
          4786 4787 4801 4802 4803 4804
          4805 4806 4807 4808 4809 4810
          4811 4812 4813 4826 4827 4828
          4829 4830 4831 4832 4833 4834
          4835 4836 4837 4838 4851 4852
          4853 4854 4855 4856 4857 4858
          4859 4860 4861 4862 4876 4877
          4878 4879 4880 4881 4882 4883
          4884 4885 4886 4887 4888 4901
          4902 4903 4904 4905 4906 4907
          4908 4909 4910 4911 4912 4913
          4926 4927 4928 4929 4930 4931
          4932 4933 4934 4935 4936 4937
          4951 4952 4953 4954 4955 4956
          4957 4958 4959 4960 4961 4962
          4963 4976 4977 4978 4979 4980
          4981 4982 4983 4984 4985 4986
          4987 4988 5001 5002 5003 5004
          5010 5011 5012 5028 5029 5030
          5031 5032 5033 5034 5035 5036
          5038 5051 5052 5053 5054 5055
          5056 5058 5059 5060 5063 5076
          5078 5079 5080 5081 5082 5083
          5086 5087 5101 5103 5104 5107
          5108 5112 5102 5105 5106 5111
          5127 5128 5129 5130 5131 5132
          5133 5134 5151 5152 5153 5154
          5156 5157 5158 5159 5162 5163
          5176 5177 5179 5180 5182 5184
          5186 5187 5202 5203 5205 5201
          5204 5206 5210 5211 5226 5227
          5228 5230 5231 5232 5234 5235
          5236 5237 5252 5254 5255 5257
          5259 5260 5261 5262 5276 5277
          5278 5280 5281 5283 5284 5285
          5286 5287 5303 5304 5310 5301
          5305 5306 5308 5309 5326 5327
          5328 5330 5331 5335 5337 5351
          5353 5355 5356 5357 5358 5359
          5360 5361 5362 5376 5377 5378
          5380 5381 5382 5383 5386 5407
          5402 5403 5404 5405 5408 5409
          5410 5412 5426 5427 5428 5429
          5430 5431 5433 5434 5435 5436
          5437 5457 5458 5459 5460 5461
          5476 5477 5478 5481 5482 5483
          5485 5486 5487 5502 5503 5504
          5505 5509 5511 5512 5513 5526
          5527 5528 5531 5533 5534 5535
          5536 5552 5553 5555 5556 5557
          5560 5561 5576 5577 5578 5579
          5580 5581 5582 5586 5602 5603
          5604 5605 5608 5609 5612 5005
          5006 5007 5008 5009 5013 5026
          5027 5037 5057 5061 5062 5077
          5084 5085 5109 5110 5126 5135
          5136 5137 5155 5160 5161 5178
          5181 5183 5185 5207 5208 5213
          5209 5212 5229 5233 5238 5251
          5253 5256 5258 5279 5282 5302
          5307 5311 5312 5329 5332 5333
          5334 5336 5352 5354 5379 5384
          5385 5387 5401 5406 5411 5432
          5451 5452 5453 5454 5455 5456
          5462 5463 5479 5480 5484 5488
          5501 5506 5507 5508 5510 5529
          5530 5532 5537 5551 5554 5558
          5559 5562 5563 5583 5584 5585
          5587 5588 5601 5606 5607 5610
          5611 5626 5627 5628 5629 5630
          5631 5632 5633 5634 5635 5636
          5637 5638 5651 5652 5653 5654
          5655 5656 5657 5658 5659 5660
          5661 5662 5676 5677 5678 5679
          5680 5681 5682 5683 5684 5685
          5686 5687 5701 5702 5703 5704
          5705 5706 5707 5708 5709 5710
          5711 5712 5726 5727 5728 5729
          5731 5732 5733 5734 5735 5736
          5737 5730 5751 5752 5753 5754
          5755 5756 5757 5758 5759 5760
          5761 5762 5763 5776 5777 5778
          5779 5780 5781 5782 5783 5784
          5785 5786 5787 5801 5802 5803
          5804 5805 5806 5807 5808 5809
          5810 5811 5812 5813 5826 5828
          5829 5830 5831 5832 5833 5834
          5835 5836 5837 5827 5838 5851
          5852 5853 5854 5855 5856 5857
          5858 5859 5860 5861 5862 5876
          5877 5878 5879 5880 5881 5882
          5883 5884 5885 5886 5887 5888
          5901 5902 5903 5904 5905 5906
          5907 5908 5909 5910 5911 5912
          5913 5926 5929 5932 5935 5927
          5928 5930 5931 5933 5934 5936
          5937 5951 5952 5953 5954 5955
          5956 5957 5958 5959 5960 5961
          5962 5963 5976 5977 5978 5979
          5980 5981 5982 5983 5984 5985
          5986 5987 5988 6001 6002 6003
          6004 6005 6006 6007 6008 6009
          6010 6011 6012 6026 6027 6028
          6029 6030 6031 6032 6033 6034
          6035 6036 6037 6038 6051 6052
          6053 6054 6055 6056 6057 6058
          6059 6060 6061 6062 6063 6076
          6077 6078 6079 6080 6081 6082
          6083 6084 6085 6086 6087 6101
          6102 6103 6104 6105 6106 6107
          6108 6109 6110 6111 6112 6113
          6126 6127 6128 6129 6130 6131
          6132 6133 6134 6135 6136 6137
          6138 6151 6152 6153 6154 6155
          6156 6157 6158 6159 6160 6161
          6162 6163 6176 6177 6178 6179
          6180 6181 6182 6183 6184 6185
          6186 6187 6201 6202 6203 6204
          6205 6206 6207 6208 6209 6210
          6211 6212 6226 6227 6228 6229
          6230 6231 6232 6233 6234 6235
          6236 6237 6251 6252 6253 6254
          6255 6256 6257 6258 6259 6260
          6261 6262 6263 6276 6277 6278
          6279 6280 6281 6282 6283 6284
          6285 6286 6287 6301 6302 6303
          6304 6305 6306 6307 6308 6309
          6310 6311 6312 6313 6326 6327
          6328 6329 6330 6331 6332 6333
          6334 6335 6336 6337 6352 6353
          6356 6357 6358 6362 6363 6351
          6354 6355 6359 6360 6361 6376
          6377 6378 6379 6380 6381 6382
          6383 6384 6385 6386 6387 6388
          6401 6402 6403 6404 6405 6406
          6407 6408 6409 6410 6411 6412
          6413 6426 6427 6428 6429 6430
          6431 6432 6433 6434 6435 6436
          6437 6451 6453 6454 6456 6457
          6459 6460 6461 6462 6463 6452
          6455 6458 6476 6477 6478 6479
          6480 6481 6482 6483 6484 6485
          6486 6487 6488 6501 6502 6503
          6504 6505 6506 6507 6508 6509
          6510 6511 6512 6526 6527 6528
          6529 6530 6531 6532 6533 6534
          6535 6536 6537 6553 6554 6555
          6556 6559 6560 6562 6551 6552
          6557 6558 6561 6576 6577 6578
          6579 6580 6581 6582 6583 6584
          6585 6586 6587 6588 6601 6602
          6603 6604 6605 6606 6607 6608
          6609 6610 6611 6612 6626 6627
          6628 6629 6630 6631 6632 6633
          6634 6635 6636 6637 6651 6661
          6662 6652 6653 6654 6655 6656
          6657 6658 6659 6660 6676 6677
          6678 6679 6680 6681 6682 6683
          6684 6685 6686 6687 6701 6702
          6703 6704 6705 6706 6707 6708
          6709 6710 6711 6712 6726 6727
          6728 6729 6730 6731 6732 6733
          6734 6735 6736 6737 6738 6751
          6752 6753 6754 6755 6756 6757
          6758 6759 6760 6761 6762 6776
          6777 6778 6779 6780 6781 6782
          6783 6784 6785 6786 6787 6801
          6802 6803 6804 6805 6806 6807
          6808 6809 6810 6811 6812 6826
          6827 6828 6829 6830 6831 6832
          6833 6834 6835 6836 6837 6851
          6852 6853 6854 6855 6856 6857
          6858 6859 6860 6861 6862 6876
          6877 6878 6879 6880 6881 6882
          6883 6884 6885 6886 6887 6888
          6901 6902 6903 6904 6905 6906
          6907 6908 6909 6910 6911 6912
          6926 6927 6928 6929 6930 6931
          6932 6933 6934 6935 6936 6937
          6938 6951 6952 6953 6954 6955
          6956 6957 6958 6959 6960 6961
          6962 6963 6976 6977 6978 6979
          6980 6981 6982 6983 6984 6985
          6986 6988 6987 7001 7002 7003
          7004 7005 7006 7007 7008 7009
          7010 7011 7012 7026 7027 7028
          7029 7030 7031 7032 7033 7034
          7035 7036 7037 7051 7052 7053
          7054 7055 7056 7057 7058 7059
          7060 7061 7062 7063 7076 7078
          7079 7081 7082 7085 7086 7077
          7080 7083 7084 7087 7101 7102
          7103 7104 7105 7106 7107 7108
          7109 7110 7111 7112 7113 7126
          7127 7128 7129 7130 7131 7132
          7133 7134 7135 7136 7137 7138
          7151 7152 7153 7154 7155 7156
          7157 7158 7159 7160 7161 7162
          7178 7179 7180 7183 7185 7188
          7176 7177 7181 7182 7184 7186
          7187 7201 7202 7203 7204 7205
          7206 7207 7208 7209 7210 7211
          7212 7213 7226 7227 7228 7229
          7230 7231 7232 7233 7234 7235
          7236 7237 7251 7252 7253 7254
          7255 7256 7257 7258 7259 7260
          7261 7262 7276 7277 7278 7279
          7280 7281 7282 7283 7284 7285
          7286 7287 7288 7301 7302 7303
          7304 7305 7306 7307 7308 7309
          7310 7311 7312 7313 7326 7327
          7328 7329 7330 7331 7332 7333
          7334 7335 7336 7337 7351 7352
          7353 7354 7355 7356 7357 7358
          7359 7360 7361 7362 7363 7376
          7377 7378 7379 7380 7381 7382
          7383 7384 7385 7386 7387 7401
          7402 7403 7404 7405 7406 7407
          7408 7409 7410 7411 7412 7413
          7426 7427 7428 7429 7430 7431
          7432 7433 7434 7435 7436 7437
          7451 7452 7453 7454 7455 7456
          7457 7458 7459 7460 7461 7462
          7476 7477 7478 7479 7480 7481
          7482 7483 7484 7485 7486 7487
          7488 7502 7507 7509 7510 7511
          7528 7530 7531 7532 7535 7551
          7552 7553 7555 7556 7558 7559
          7560 7576 7582 7584 7585 7602
          7606 7611 7601 7609 7630 7631
          7632 7633 7654 7656 7658 7661
          7662 7677 7678 7681 7682 7683
          7705 7709 7710 7712 7713 7708
          7731 7733 7736 7737 7738 7754
          7758 7760 7761 7777 7779 7783
          7787 7801 7803 7808 7805 7806
          7830 7831 7837 7851 7852 7857
          7860 7876 7881 7882 7885 7901
          7902 7905 7906 7909 7910 7911
          7928 7931 7934 7937 7951 7956
          7958 7959 7961 7962 7963 7978
          7981 7983 7986 8002 8028 8030
          8033 8035 8055 8059 8061 8078
          8102 8103 8104 8105 8106 8112
          7501 7503 7504 7505 7506 7508
          7512 7526 7527 7529 7533 7534
          7536 7537 7554 7557 7561 7562
          7577 7578 7579 7580 7581 7583
          7586 7587 7588 7604 7605 7608
          7610 7612 7603 7607 7626 7627
          7628 7629 7634 7635 7636 7637
          7651 7652 7653 7655 7657 7659
          7660 7663 7676 7679 7680 7684
          7685 7686 7687 7701 7702 7703
          7707 7704 7706 7711 7726 7727
          7728 7729 7730 7732 7734 7735
          7751 7752 7753 7755 7756 7757
          7759 7762 7776 7778 7780 7781
          7782 7784 7785 7786 7809 7810
          7811 7802 7804 7807 7812 7826
          7827 7828 7829 7832 7833 7834
          7835 7836 7838 7853 7854 7855
          7856 7858 7859 7861 7862 7863
          7877 7878 7879 7880 7883 7884
          7886 7887 7903 7904 7907 7908
          7912 7926 7927 7929 7930 7932
          7933 7935 7936 7952 7953 7954
          7955 7957 7960 7976 7977 7979
          7980 7982 7984 7985 7987 8001
          8003 8004 8005 8006 8007 8008
          8009 8010 8011 8012 8026 8027
          8029 8031 8032 8034 8036 8037
          8038 8051 8052 8053 8054 8056
          8057 8058 8060 8062 8076 8077
          8079 8080 8081 8082 8083 8084
          8085 8086 8087 8101 8107 8108
          8109 8110 8111 8113 8126 8127
          8128 8129 8130 8131 8132 8133
          8134 8135 8136 8137 8151 8152
          8153 8154 8155 8156 8157 8158
          8159 8160 8161 8162 8176 8177
          8178 8179 8180 8181 8182 8183
          8184 8185 8186 8187 8188 8201
          8202 8203 8204 8205 8206 8207
          8208 8209 8210 8211 8212 8226
          8227 8228 8229 8230 8231 8232
          8233 8234 8235 8236 8237 8238
          8251 8252 8253 8254 8255 8256
          8257 8258 8259 8260 8261 8262
          8276 8277 8278 8279 8280 8281
          8282 8283 8284 8285 8286 8287
          8301 8302 8303 8304 8305 8306
          8307 8308 8309 8310 8311 8312
          8326 8330 8334 8335 8336 8337
          8338 8327 8328 8329 8331 8332
          8333 8351 8352 8353 8354 8355
          8356 8357 8358 8359 8360 8361
          8362 8363 8376 8377 8378 8379
          8380 8381 8382 8383 8384 8385
          8386 8387 8388 8401 8402 8403
          8404 8405 8406 8407 8408 8409
          8410 8411 8412 8427 8432 8435
          8426 8428 8429 8430 8431 8433
          8434 8436 8437 8438 8451 8452
          8453 8454 8455 8456 8457 8458
          8459 8460 8461 8462 8463 8476
          8477 8478 8479 8480 8481 8482
          8483 8484 8485 8486 8487 8501
          8502 8503 8504 8505 8506 8507
          8508 8509 8510 8511 8512 8528
          8529 8526 8527 8530 8531 8532
          8533 8534 8535 8536 8537 8551
          8552 8553 8554 8555 8556 8557
          8558 8559 8560 8561 8562 8576
          8577 8578 8579 8580 8581 8582
          8583 8584 8585 8586 8587 8601
          8602 8603 8604 8605 8606 8607
          8608 8609 8610 8611 8612 8626
          8627 8628 8629 8630 8631 8632
          8633 8634 8635 8636 8637 8651
          8652 8653 8654 8655 8656 8657
          8658 8659 8660 8661 8662 8676
          8677 8678 8679 8680 8681 8682
          8683 8684 8685 8686 8687 8701
          8702 8703 8704 8705 8706 8707
          8708 8709 8710 8711 8712 8713
          8726 8727 8728 8729 8730 8731
          8732 8733 8734 8735 8736 8737
          8751 8752 8753 8754 8755 8756
          8757 8758 8759 8760 8761 8762
          8776 8777 8778 8779 8780 8781
          8782 8783 8784 8785 8786 8787
          8801 8802 8803 8804 8805 8806
          8807 8808 8809 8810 8811 8812
          8826 8827 8828 8829 8830 8831
          8832 8833 8834 8835 8836 8837
          8838 8852 8853 8854 8855 8858
          8859 8860 8861 8862 8851 8856
          8857 8876 8877 8878 8879 8880
          8881 8882 8883 8884 8885 8886
          8887 8901 8902 8903 8904 8905
          8906 8907 8908 8909 8910 8911
          8912 8926 8927 8928 8929 8930
          8931 8932 8933 8934 8935 8936
          8937 8951 8952 8953 8955 8957
          8962 8954 8956 8958 8959 8960
          8961 8963 8976 8977 8978 8979
          8980 8981 8982 8983 8984 8985
          8986 8987 9001 9002 9003 9004
          9005 9006 9007 9008 9009 9010
          9011 9012 9013 9026 9027 9028
          9029 9030 9031 9032 9033 9034
          9035 9036 9037 9038 9051 9052
          9056 9059 9053 9054 9055 9057
          9058 9060 9061 9062 9076 9077
          9078 9079 9080 9081 9082 9083
          9084 9085 9086 9087 9101 9102
          9103 9104 9105 9106 9107 9108
          9109 9110 9111 9112 9113 9126