LIGGGHTS data file

 15625 atoms

 2 atom types

 -0.00019617 0.00970011 xlo xhi
 -0.000196169 0.00970018 ylo yhi
 -0.00019607 0.00970018 zlo zhi

Atoms

1 1 0.000306666 2650.0 6.39847e-06 3.47332e-06 -8.65489e-06
2 1 0.0001733334 2650.0 0.000409253 -1.3682e-05 -1.06747e-05
3 1 0.000306666 2650.0 0.000780961 -1.26745e-05 9.95887e-06
4 1 0.0001733334 2650.0 0.00118832 -8.58986e-07 1.34244e-05
5 1 0.000253334 2650.0 0.00157461 -6.03547e-06 6.28429e-06
6 1 0.00028 2650.0 0.00197604 -8.95183e-06 1.22388e-05
7 1 0.00012 2650.0 0.00236588 1.47246e-05 4.60052e-06
8 1 0.000226666 2650.0 0.00278647 3.56216e-06 -6.05189e-06
9 1 0.0001466666 2650.0 0.00315749 5.67025e-07 4.38782e-06
10 1 0.0001466666 2650.0 0.00356774 9.51943e-06 1.85015e-06
11 1 0.0002 2650.0 0.0039514 1.32828e-05 7.21011e-06
12 1 0.0002 2650.0 0.00436023 -1.19527e-05 -9.11329e-06
13 1 0.0002 2650.0 0.00473974 -6.61495e-06 -1.30648e-05
14 1 0.0001466666 2650.0 0.00514272 2.3937e-06 -9.83693e-06
15 1 0.000226666 2650.0 0.00555193 -8.93561e-07 1.55197e-05
16 1 0.00028 2650.0 0.00592742 -4.70803e-06 -6.98101e-06
17 1 0.000226666 2650.0 0.00632651 9.24162e-07 1.2792e-05
18 1 0.0001733334 2650.0 0.00672046 4.17444e-06 1.38749e-05
19 1 0.000226666 2650.0 0.00714021 -1.60954e-05 -7.97255e-06
20 1 0.0001733334 2650.0 0.00753568 1.45056e-05 -1.39784e-05
21 1 0.0001466666 2650.0 0.00791821 -9.24741e-06 1.53538e-06
22 1 0.0001466666 2650.0 0.0083307 2.15503e-07 -6.83114e-06
23 1 0.00012 2650.0 0.00872661 3.76489e-06 -6.6666e-07
24 1 0.00012 2650.0 0.00911386 2.78869e-06 -1.32471e-05
25 1 0.0002 2650.0 0.009512 -5.07519e-06 1.04949e-05
26 1 0.0002 2650.0 1.89214e-06 0.000380438 7.65636e-06
27 1 0.0001466666 2650.0 0.000383581 0.000382309 2.5882e-06
28 1 0.000226666 2650.0 0.000778755 0.00040377 -1.39744e-05
29 1 0.000226666 2650.0 0.00118779 0.000390662 -5.50288e-06
30 1 0.0001733334 2650.0 0.00159904 0.000407512 -4.55121e-06
31 1 0.0002 2650.0 0.00198428 0.000390093 -1.02904e-05
32 1 0.0001466666 2650.0 0.00237605 0.000392465 4.4449e-06
33 1 0.000306666 2650.0 0.00276298 0.000384545 -7.70228e-06
34 1 0.0002 2650.0 0.00315372 0.000383343 1.16549e-05
35 1 0.00012 2650.0 0.00355745 0.000383124 -9.28348e-06
36 1 0.0001733334 2650.0 0.00397092 0.000405711 6.74471e-06
37 1 0.0001466666 2650.0 0.00434679 0.000391906 3.62076e-06
38 1 0.0001466666 2650.0 0.00475897 0.000390912 -9.1797e-06
39 1 0.0001466666 2650.0 0.00515366 0.000407331 -1.53142e-06
40 1 0.0001733334 2650.0 0.00553095 0.000399288 -9.79694e-06
41 1 0.0001466666 2650.0 0.00593964 0.000402276 -1.1193e-05
42 1 0.0002 2650.0 0.00632957 0.000395685 -1.23787e-05
43 1 0.00012 2650.0 0.00672294 0.000381293 4.04066e-06
44 1 0.0001466666 2650.0 0.00712897 0.000389304 1.47222e-05
45 1 0.000226666 2650.0 0.00752118 0.000381149 1.24344e-05
46 1 0.000226666 2650.0 0.00792481 0.000399414 -6.27428e-07
47 1 0.0001466666 2650.0 0.00830081 0.000404863 -1.09507e-05
48 1 0.0001733334 2650.0 0.00872797 0.000391769 1.22922e-05
49 1 0.000306666 2650.0 0.0091213 0.000400334 1.09088e-05
50 1 0.00012 2650.0 0.00949683 0.00040732 -2.62889e-06
51 1 0.0001466666 2650.0 9.83226e-06 0.000802791 -1.35637e-05
52 1 0.000226666 2650.0 0.000396981 0.000788329 -6.22378e-06
53 1 0.0001466666 2650.0 0.000776044 0.000788052 7.77715e-06
54 1 0.000226666 2650.0 0.00119688 0.000781112 8.57678e-06
55 1 0.0002 2650.0 0.00158638 0.000780237 2.76805e-06
56 1 0.000226666 2650.0 0.0019763 0.000808009 -1.39397e-05
57 1 0.0002 2650.0 0.00237565 0.000798354 -3.79389e-06
58 1 0.000226666 2650.0 0.00277121 0.000806273 -2.82072e-06
59 1 0.000226666 2650.0 0.00316133 0.000791141 1.42166e-05
60 1 0.0001466666 2650.0 0.00355215 0.000802522 5.49881e-07
61 1 0.000253334 2650.0 0.00396786 0.000783972 1.11819e-05
62 1 0.000253334 2650.0 0.00437094 0.000778276 3.97218e-06
63 1 0.000226666 2650.0 0.00473603 0.000784441 -8.13387e-06
64 1 0.0002 2650.0 0.0051376 0.000793025 -2.62989e-06
65 1 0.0001466666 2650.0 0.00553707 0.000803111 -4.93788e-06
66 1 0.0001733334 2650.0 0.00592541 0.000780211 -9.7042e-06
67 1 0.00012 2650.0 0.00633903 0.000802196 4.66857e-06
68 1 0.0002 2650.0 0.00672381 0.000795051 1.42432e-05
69 1 0.00012 2650.0 0.00714157 0.000778823 -1.49472e-05
70 1 0.0001466666 2650.0 0.00753539 0.000787969 -7.83612e-06
71 1 0.000306666 2650.0 0.00792426 0.000800373 4.77649e-06
72 1 0.000226666 2650.0 0.00830736 0.00079295 -9.30458e-06
73 1 0.0001733334 2650.0 0.00872475 0.000779556 6.26256e-07
74 1 0.00012 2650.0 0.00910348 0.000787051 -5.68193e-06
75 1 0.000253334 2650.0 0.00949063 0.000800838 -1.573e-05
76 1 0.0001466666 2650.0 9.52943e-06 0.00119591 1.55981e-05
77 1 0.0001466666 2650.0 0.000404457 0.00118203 4.30783e-06
78 1 0.00012 2650.0 0.000779674 0.00118789 8.34829e-06
79 1 0.0001466666 2650.0 0.00117332 0.00119736 -8.83231e-06
80 1 0.00012 2650.0 0.00159619 0.00117956 -5.56492e-07
81 1 0.0002 2650.0 0.00199064 0.00117837 -1.06354e-05
82 1 0.00012 2650.0 0.00237815 0.00120073 1.52926e-05
83 1 0.00028 2650.0 0.00276553 0.00119772 5.58042e-06
84 1 0.00028 2650.0 0.0031602 0.00118042 -7.81115e-06
85 1 0.0002 2650.0 0.00356677 0.00118209 -5.50522e-06
86 1 0.0001733334 2650.0 0.00396814 0.00118537 1.0492e-05
87 1 0.000253334 2650.0 0.00434214 0.00117586 -1.48642e-05
88 1 0.00012 2650.0 0.00476546 0.00117542 -1.64079e-06
89 1 0.000226666 2650.0 0.00514365 0.00117209 -4.51918e-06
90 1 0.0001466666 2650.0 0.00553581 0.00119364 5.8488e-06
91 1 0.00012 2650.0 0.00593922 0.00119273 -1.46287e-05
92 1 0.000253334 2650.0 0.00632288 0.00119515 -6.3332e-06
93 1 0.000226666 2650.0 0.00672399 0.00117559 -1.03276e-06
94 1 0.000253334 2650.0 0.00713676 0.0011741 -6.40344e-06
95 1 0.0002 2650.0 0.00753414 0.00119971 1.03333e-05
96 1 0.0001733334 2650.0 0.00792781 0.0011796 1.03932e-05
97 1 0.0001466666 2650.0 0.00832642 0.0011768 -1.14331e-05
98 1 0.0001733334 2650.0 0.00872017 0.00117698 -7.76161e-06
99 1 0.000253334 2650.0 0.00910099 0.00119604 -9.4543e-06
100 1 0.00012 2650.0 0.00949513 0.00118516 -1.17958e-05
101 1 0.000226666 2650.0 3.56171e-06 0.00157045 -9.13738e-07
102 1 0.000226666 2650.0 0.000396406 0.00159671 -1.11609e-05
103 1 0.0001733334 2650.0 0.000806635 0.00158078 8.46167e-07
104 1 0.0002 2650.0 0.00118592 0.00159757 -1.32631e-05
105 1 0.0001466666 2650.0 0.00158301 0.00159186 9.39186e-06
106 1 0.0001466666 2650.0 0.00197617 0.00157857 9.02471e-06
107 1 0.000226666 2650.0 0.00238996 0.00157467 -1.12418e-05
108 1 0.00012 2650.0 0.00278803 0.00158151 -5.34152e-07
109 1 0.0001733334 2650.0 0.00316531 0.00157698 -3.36678e-06
110 1 0.00012 2650.0 0.00354893 0.00159557 4.11236e-06
111 1 0.000226666 2650.0 0.00396719 0.00159472 1.35609e-05
112 1 0.0001733334 2650.0 0.00433999 0.00158986 -1.02726e-05
113 1 0.0001733334 2650.0 0.00475956 0.00157796 4.22518e-06
114 1 0.0001466666 2650.0 0.00513984 0.00157161 8.64414e-06
115 1 0.0001466666 2650.0 0.00554439 0.00158395 -1.11221e-06
116 1 0.000226666 2650.0 0.00594196 0.00157056 3.58451e-06
117 1 0.0002 2650.0 0.00634933 0.00159322 4.05569e-06
118 1 0.0001733334 2650.0 0.00672637 0.0015943 -5.48787e-06
119 1 0.0002 2650.0 0.00713608 0.00159734 -5.43482e-06
120 1 0.000253334 2650.0 0.00751661 0.00159974 1.29089e-05
121 1 0.000253334 2650.0 0.00792946 0.00158634 -8.19578e-06
122 1 0.00012 2650.0 0.00830192 0.00157451 1.52351e-05
123 1 0.00036 2650.0 0.00871105 0.00157429 2.25642e-06
124 1 0.0001466666 2650.0 0.00912359 0.00157909 -1.32198e-05
125 1 0.0001733334 2650.0 0.00951772 0.00156946 7.32453e-06
126 1 0.0001466666 2650.0 1.57549e-05 0.00196817 -5.15181e-06
127 1 0.0001466666 2650.0 0.000382258 0.00196774 2.56821e-06
128 1 0.00028 2650.0 0.000799037 0.0019649 3.66852e-06
129 1 0.0002 2650.0 0.00118761 0.00198882 1.57922e-05
130 1 0.0001466666 2650.0 0.0015833 0.00197849 7.97879e-06
131 1 0.0002 2650.0 0.00197592 0.00197711 -2.21216e-06
132 1 0.00012 2650.0 0.00239148 0.00197793 -7.20488e-06
133 1 0.0001466666 2650.0 0.00275842 0.00198185 -1.04365e-05
134 1 0.00012 2650.0 0.00317489 0.00198066 6.02082e-06
135 1 0.00012 2650.0 0.00357067 0.00199493 1.26961e-05
136 1 0.0002 2650.0 0.00395652 0.00197094 2.91934e-06
137 1 0.0001466666 2650.0 0.00436769 0.00198772 1.15793e-05
138 1 0.00028 2650.0 0.00473802 0.00196775 -1.45988e-05
139 1 0.00012 2650.0 0.00515148 0.00196582 -1.36799e-05
140 1 0.0002 2650.0 0.00553714 0.00199254 -6.33656e-06
141 1 0.0001466666 2650.0 0.00594016 0.00197041 -1.41181e-05
142 1 0.00028 2650.0 0.00635002 0.00198877 6.40547e-07
143 1 0.0002 2650.0 0.00674088 0.00199159 -3.20576e-06
144 1 0.0001466666 2650.0 0.00712995 0.00196768 -5.52718e-06
145 1 0.0001466666 2650.0 0.00751944 0.0019881 1.35637e-05
146 1 0.0001466666 2650.0 0.00791843 0.00197398 1.40013e-05
147 1 0.000226666 2650.0 0.00831488 0.00196604 -1.43955e-05
148 1 0.00012 2650.0 0.00869694 0.00196999 2.86178e-06
149 1 0.00012 2650.0 0.00909194 0.00198825 1.1313e-05
150 1 0.0001733334 2650.0 0.00951837 0.00198855 1.12034e-05
151 1 0.0001733334 2650.0 -1.37121e-05 0.00237814 8.08721e-06
152 1 0.000253334 2650.0 0.000399775 0.00238956 3.30845e-06
153 1 0.0002 2650.0 0.000798691 0.00237638 5.86837e-07
154 1 0.0001733334 2650.0 0.00120136 0.00236542 -1.51465e-05
155 1 0.000226666 2650.0 0.00158438 0.00236671 6.20488e-06
156 1 0.000226666 2650.0 0.00196977 0.00238773 -8.94228e-06
157 1 0.00028 2650.0 0.00238662 0.00236911 1.35888e-05
158 1 0.0001733334 2650.0 0.00277093 0.002387 -3.77792e-06
159 1 0.0002 2650.0 0.00317651 0.00238507 -1.12367e-05
160 1 0.000226666 2650.0 0.00356903 0.00237033 4.04677e-06
161 1 0.000253334 2650.0 0.00396656 0.00236502 1.46015e-05
162 1 0.000253334 2650.0 0.00436549 0.00237584 -1.53571e-05
163 1 0.0001466666 2650.0 0.00474441 0.00236084 1.30429e-05
164 1 0.000226666 2650.0 0.00514134 0.00236502 1.13431e-06
165 1 0.0001733334 2650.0 0.00555722 0.00239121 9.16185e-06
166 1 0.0001733334 2650.0 0.00592597 0.00237513 -8.57604e-07
167 1 0.0002 2650.0 0.00634025 0.00238856 1.49294e-05
168 1 0.000306666 2650.0 0.00674555 0.0023618 1.34312e-05
169 1 0.0002 2650.0 0.00713581 0.00236259 -3.51317e-06
170 1 0.000253334 2650.0 0.00751101 0.00236905 -8.1398e-07
171 1 0.00012 2650.0 0.00791223 0.0023815 -1.22434e-05
172 1 0.0001466666 2650.0 0.00831295 0.00238762 1.22596e-05
173 1 0.000226666 2650.0 0.00872755 0.00237218 1.19183e-05
174 1 0.00028 2650.0 0.00912167 0.00237892 7.77853e-06
175 1 0.000226666 2650.0 0.00950369 0.0023616 -1.55053e-06
176 1 0.0002 2650.0 -1.00945e-05 0.00276014 -5.77966e-06
177 1 0.0001733334 2650.0 0.000392487 0.00276311 9.86786e-06
178 1 0.0001466666 2650.0 0.000785561 0.00277484 5.04455e-06
179 1 0.00012 2650.0 0.00118099 0.00277523 4.33194e-06
180 1 0.000226666 2650.0 0.00158818 0.00277791 -3.49578e-06
181 1 0.0001466666 2650.0 0.00196759 0.00277171 -8.39133e-06
182 1 0.0001466666 2650.0 0.0023801 0.00278547 -1.10705e-05
183 1 0.0001466666 2650.0 0.00278325 0.00278178 -8.49572e-06
184 1 0.00012 2650.0 0.00316727 0.00278664 -3.04047e-08
185 1 0.000226666 2650.0 0.00357138 0.00277239 -8.75358e-06
186 1 0.000253334 2650.0 0.00396701 0.00278691 7.562e-06
187 1 0.00036 2650.0 0.00434539 0.00277211 -1.48845e-05
188 1 0.0001466666 2650.0 0.00474779 0.00275891 1.09587e-05
189 1 0.00012 2650.0 0.00513756 0.00276984 8.19269e-06
190 1 0.000253334 2650.0 0.00553854 0.00276729 6.58674e-06
191 1 0.000226666 2650.0 0.00593248 0.00278648 -2.30776e-06
192 1 0.0001466666 2650.0 0.00633236 0.00276419 -1.30419e-05
193 1 0.00012 2650.0 0.00672268 0.00276995 1.39976e-05
194 1 0.000226666 2650.0 0.00712873 0.00278302 6.49226e-06
195 1 0.000333334 2650.0 0.00751623 0.00277954 6.02422e-06
196 1 0.0002 2650.0 0.00791911 0.00276895 -5.60612e-06
197 1 0.0001466666 2650.0 0.00831314 0.00277591 1.42616e-05
198 1 0.000306666 2650.0 0.00871087 0.00277269 -1.30643e-05
199 1 0.000253334 2650.0 0.00911118 0.00275634 -2.85402e-06
200 1 0.000226666 2650.0 0.00948845 0.00278573 -4.4497e-06
201 1 0.000253334 2650.0 -6.96621e-06 0.00318055 -9.19663e-06
202 1 0.0002 2650.0 0.000408588 0.00315959 -1.52959e-05
203 1 0.0002 2650.0 0.000807974 0.00317712 -1.16292e-05
204 1 0.0001733334 2650.0 0.00117267 0.00315799 -1.53273e-05
205 1 0.0002 2650.0 0.00159014 0.00316705 -6.05078e-06
206 1 0.000306666 2650.0 0.00198806 0.00316899 -7.8839e-06
207 1 0.000306666 2650.0 0.00238735 0.0031588 9.01023e-06
208 1 0.0001733334 2650.0 0.00276935 0.0031607 6.21114e-06
209 1 0.0001733334 2650.0 0.0031658 0.00317453 -9.37199e-06
210 1 0.0001733334 2650.0 0.00357779 0.00316329 -1.37205e-05
211 1 0.000226666 2650.0 0.00395086 0.00315476 9.34098e-06
212 1 0.000253334 2650.0 0.00437181 0.00315373 1.44762e-06
213 1 0.00012 2650.0 0.0047497 0.00318173 -9.4763e-07
214 1 0.0001466666 2650.0 0.00516197 0.00316836 7.66038e-06
215 1 0.000226666 2650.0 0.00553444 0.00316339 9.48823e-06
216 1 0.00036 2650.0 0.00593595 0.003161 6.4817e-06
217 1 0.0001733334 2650.0 0.00634523 0.00315953 -2.44625e-06
218 1 0.000306666 2650.0 0.00673353 0.00317716 -3.71237e-06
219 1 0.000253334 2650.0 0.00713652 0.00316704 9.01259e-06
220 1 0.0001466666 2650.0 0.00752859 0.00316963 9.90793e-06
221 1 0.00028 2650.0 0.00790662 0.00315813 -3.73483e-06
222 1 0.0001466666 2650.0 0.00830357 0.00316666 5.60841e-06
223 1 0.000253334 2650.0 0.00872103 0.00317525 1.42882e-05
224 1 0.000226666 2650.0 0.00910039 0.00315945 -1.60701e-05
225 1 0.0002 2650.0 0.00950094 0.00317688 -1.47849e-05
226 1 0.0001466666 2650.0 -1.45441e-05 0.00357893 2.6279e-06
227 1 0.0001466666 2650.0 0.000401987 0.00357732 1.25263e-05
228 1 0.0001733334 2650.0 0.000786738 0.00357902 1.46091e-05
229 1 0.000226666 2650.0 0.00119594 0.00356912 -1.39972e-05
230 1 0.0001733334 2650.0 0.0015891 0.00356838 3.19836e-06
231 1 0.0001733334 2650.0 0.00198332 0.00355405 1.88732e-06
232 1 0.000253334 2650.0 0.0023766 0.00356554 1.48527e-06
233 1 0.0002 2650.0 0.00278695 0.00356368 -9.42109e-06
234 1 0.00028 2650.0 0.00316659 0.00357621 -5.03272e-06
235 1 0.00012 2650.0 0.00357544 0.00356898 -7.4488e-07
236 1 0.0001466666 2650.0 0.0039472 0.00357946 4.21387e-06
237 1 0.0001466666 2650.0 0.00435206 0.00356782 -4.74263e-06
238 1 0.0001466666 2650.0 0.00474663 0.00356494 -1.16201e-05
239 1 0.0001466666 2650.0 0.00515632 0.00354947 1.02515e-05
240 1 0.00012 2650.0 0.00553834 0.0035671 3.8217e-06
241 1 0.00012 2650.0 0.00595459 0.0035549 1.14307e-05
242 1 0.0001733334 2650.0 0.00632046 0.00355654 9.73215e-06
243 1 0.00012 2650.0 0.00674501 0.00355569 -7.69879e-06
244 1 0.0002 2650.0 0.00714007 0.00355867 1.30283e-05
245 1 0.0002 2650.0 0.00753191 0.00354783 2.90496e-06
246 1 0.0001733334 2650.0 0.00791689 0.00356422 -1.92853e-06
247 1 0.00012 2650.0 0.00830313 0.00356366 -1.55172e-05
248 1 0.0001466666 2650.0 0.00870237 0.00357835 4.91661e-06
249 1 0.0001733334 2650.0 0.00912152 0.00357567 -1.04857e-05
250 1 0.0002 2650.0 0.00949388 0.00356127 3.89801e-06
251 1 0.0002 2650.0 1.09729e-06 0.00396663 9.83083e-06
252 1 0.000253334 2650.0 0.000382826 0.00396248 -1.5329e-05
253 1 0.00012 2650.0 0.000802413 0.00394409 -3.44157e-06
254 1 0.00012 2650.0 0.00117953 0.00397343 -1.13338e-05
255 1 0.000333334 2650.0 0.00157665 0.00395569 -1.45278e-05
256 1 0.0001733334 2650.0 0.00197783 0.0039506 9.07604e-06
257 1 0.00012 2650.0 0.0023779 0.00395717 1.42943e-05
258 1 0.0001466666 2650.0 0.00277091 0.00394995 -6.68119e-06
259 1 0.00012 2650.0 0.00317572 0.00397035 5.55118e-06
260 1 0.0002 2650.0 0.00355061 0.00395763 4.02922e-06
261 1 0.000226666 2650.0 0.00396316 0.00397081 1.36279e-05
262 1 0.000226666 2650.0 0.0043638 0.00395257 9.43402e-06
263 1 0.00012 2650.0 0.00474399 0.00395222 1.35652e-05
264 1 0.00012 2650.0 0.0051392 0.00396487 -8.85378e-06
265 1 0.00012 2650.0 0.00555175 0.00394447 -1.90573e-06
266 1 0.0002 2650.0 0.00595397 0.00395809 5.85881e-06
267 1 0.000253334 2650.0 0.00634138 0.00394493 9.96612e-06
268 1 0.00012 2650.0 0.0067245 0.00397097 2.99024e-06
269 1 0.0001466666 2650.0 0.00713263 0.00394755 8.04808e-06
270 1 0.0001733334 2650.0 0.00751815 0.00396355 2.59724e-06
271 1 0.00012 2650.0 0.00792899 0.00397327 8.34608e-06
272 1 0.00028 2650.0 0.00832894 0.00396626 1.60748e-05
273 1 0.00012 2650.0 0.00869726 0.00396497 4.88798e-06
274 1 0.0001466666 2650.0 0.0090939 0.00395819 -1.26714e-05
275 1 0.0001466666 2650.0 0.00950063 0.00397613 -9.81899e-06
276 1 0.0001466666 2650.0 -1.46153e-05 0.00434116 1.28851e-05
277 1 0.0002 2650.0 0.000393855 0.00436919 -4.08906e-06
278 1 0.0001466666 2650.0 0.000787601 0.00435183 1.40724e-05
279 1 0.0001466666 2650.0 0.00118282 0.00434359 1.05278e-05
280 1 0.0001466666 2650.0 0.00158792 0.00436276 -1.51064e-05
281 1 0.0002 2650.0 0.00197277 0.00436307 8.32736e-06
282 1 0.0001466666 2650.0 0.00236589 0.00433986 -1.09611e-06
283 1 0.0001466666 2650.0 0.00278524 0.00435336 -2.30376e-06
284 1 0.000306666 2650.0 0.00316665 0.00435092 -4.75728e-06
285 1 0.0001733334 2650.0 0.00357166 0.0043462 -1.02737e-05
286 1 0.000226666 2650.0 0.0039491 0.00436433 1.06845e-05
287 1 0.00012 2650.0 0.00436878 0.00434826 -9.88501e-06
288 1 0.00012 2650.0 0.00476189 0.00434575 7.29703e-06
289 1 0.000253334 2650.0 0.00515518 0.00434902 5.08666e-06
290 1 0.0002 2650.0 0.00553192 0.00434106 9.02435e-06
291 1 0.000306666 2650.0 0.00594782 0.00434486 1.37946e-05
292 1 0.0002 2650.0 0.00632759 0.00437211 3.42714e-06
293 1 0.0001466666 2650.0 0.00672483 0.004348 1.33785e-05
294 1 0.0001466666 2650.0 0.00712414 0.00436371 -6.8392e-07
295 1 0.0001466666 2650.0 0.00753135 0.00436254 -3.28811e-06
296 1 0.00012 2650.0 0.00793119 0.00435502 9.04163e-06
297 1 0.000253334 2650.0 0.0083227 0.00436558 4.05069e-06
298 1 0.0002 2650.0 0.00871957 0.00436044 -1.04486e-05
299 1 0.00012 2650.0 0.00910564 0.00435422 4.14097e-06
300 1 0.00012 2650.0 0.00950616 0.00434229 1.56032e-05
301 1 0.00012 2650.0 -3.14338e-06 0.00476565 2.86374e-06
302 1 0.000226666 2650.0 0.000380466 0.00474653 -1.06694e-06
303 1 0.0001733334 2650.0 0.000777071 0.00474189 -4.76263e-06
304 1 0.00028 2650.0 0.00120295 0.00474183 -2.40433e-06
305 1 0.0001466666 2650.0 0.0015773 0.00476217 -4.0087e-06
306 1 0.0001466666 2650.0 0.00196541 0.00476185 5.56657e-06
307 1 0.0001733334 2650.0 0.00236212 0.00476608 5.34895e-06
308 1 0.000226666 2650.0 0.00276176 0.00476426 -7.29063e-08
309 1 0.000226666 2650.0 0.00317387 0.00474377 -9.90943e-06
310 1 0.0001733334 2650.0 0.00355224 0.00475426 1.08983e-05
311 1 0.000333334 2650.0 0.00396991 0.00475537 -1.34247e-05
312 1 0.0002 2650.0 0.00436098 0.00475141 -1.23847e-06
313 1 0.0001466666 2650.0 0.0047379 0.00476062 1.04933e-05
314 1 0.000226666 2650.0 0.00515508 0.00474656 -1.20435e-05
315 1 0.0001466666 2650.0 0.00553154 0.00474343 -1.2042e-05
316 1 0.00012 2650.0 0.00595253 0.00475354 1.42708e-06
317 1 0.0002 2650.0 0.00634489 0.00476251 -2.92324e-06
318 1 0.000306666 2650.0 0.00671954 0.00474551 -2.29507e-06
319 1 0.00012 2650.0 0.00714322 0.00474217 1.46275e-05
320 1 0.00036 2650.0 0.00751644 0.00474705 6.5617e-06
321 1 0.000226666 2650.0 0.00791287 0.00475075 -4.07692e-06
322 1 0.0001733334 2650.0 0.00832116 0.00476488 -1.55767e-06
323 1 0.00012 2650.0 0.00871147 0.00475925 1.0671e-05
324 1 0.00028 2650.0 0.0091217 0.00475552 -1.12342e-05
325 1 0.00012 2650.0 0.0095184 0.00474154 1.25948e-05
326 1 0.0001466666 2650.0 1.24087e-05 0.00514211 -1.11404e-05
327 1 0.0001733334 2650.0 0.000399426 0.00515319 -6.62207e-06
328 1 0.0001733334 2650.0 0.000788821 0.00514562 -1.58101e-05
329 1 0.0002 2650.0 0.00118018 0.00515133 -6.22595e-06
330 1 0.00012 2650.0 0.00159652 0.00514239 8.63202e-06
331 1 0.0001466666 2650.0 0.00197111 0.00513801 -2.48328e-06
332 1 0.000333334 2650.0 0.00237076 0.00514504 -1.56588e-05
333 1 0.0001733334 2650.0 0.00278039 0.00514977 4.39443e-06
334 1 0.0001733334 2650.0 0.00315314 0.00513738 1.28551e-05
335 1 0.0001733334 2650.0 0.00357578 0.00514635 4.28877e-06
336 1 0.000226666 2650.0 0.00395142 0.00513793 -8.48976e-06
337 1 0.0001733334 2650.0 0.00435826 0.00515586 4.15462e-06
338 1 0.000226666 2650.0 0.00475664 0.00515289 6.17515e-06
339 1 0.000226666 2650.0 0.00515649 0.0051427 5.42903e-06
340 1 0.0002 2650.0 0.00555137 0.00516009 -5.42032e-06
341 1 0.0001733334 2650.0 0.00594948 0.00514248 -9.4132e-06
342 1 0.00012 2650.0 0.00633749 0.00514891 -7.77458e-06
343 1 0.000226666 2650.0 0.00673377 0.00514222 1.31831e-05
344 1 0.0002 2650.0 0.00711329 0.00513454 -6.31084e-06
345 1 0.00012 2650.0 0.00753531 0.0051531 1.21183e-05
346 1 0.0002 2650.0 0.00792553 0.00514109 -1.20287e-05
347 1 0.000226666 2650.0 0.00832639 0.00515488 -6.36799e-06
348 1 0.0001733334 2650.0 0.00870244 0.00514051 -1.42796e-05
349 1 0.000253334 2650.0 0.00909747 0.00515287 -8.04259e-06
350 1 0.000306666 2650.0 0.00950493 0.00513835 5.27968e-06
351 1 0.0001733334 2650.0 -7.98599e-06 0.00555668 -1.04796e-05
352 1 0.000306666 2650.0 0.000391278 0.00553117 1.26415e-05
353 1 0.00012 2650.0 0.000778768 0.00554243 1.13541e-05
354 1 0.00012 2650.0 0.00117954 0.00553232 -7.79816e-06
355 1 0.0001733334 2650.0 0.00157837 0.00553545 -1.20908e-05
356 1 0.000226666 2650.0 0.00198343 0.00554229 7.88946e-06
357 1 0.00012 2650.0 0.00236095 0.00553297 1.24422e-05
358 1 0.0001466666 2650.0 0.00277816 0.00555531 1.21902e-06
359 1 0.0001466666 2650.0 0.00317923 0.00554571 -8.90211e-06
360 1 0.00012 2650.0 0.00356942 0.00554675 -1.50361e-05
361 1 0.0002 2650.0 0.00396891 0.00552985 6.7543e-06
362 1 0.0001733334 2650.0 0.00434599 0.00553543 -1.32127e-05
363 1 0.0001466666 2650.0 0.00475659 0.00554561 7.28855e-06
364 1 0.0001733334 2650.0 0.00514235 0.00553833 -4.9549e-06
365 1 0.0002 2650.0 0.00553494 0.00555653 -2.17287e-06
366 1 0.0002 2650.0 0.00593537 0.00555161 -1.55218e-05
367 1 0.0001466666 2650.0 0.00634664 0.00554169 8.25676e-06
368 1 0.000226666 2650.0 0.00673411 0.00555332 -1.5184e-05
369 1 0.0001466666 2650.0 0.00711229 0.00553067 -5.23542e-06
370 1 0.000226666 2650.0 0.00753065 0.00555422 8.72495e-06
371 1 0.000253334 2650.0 0.00791779 0.00555983 -8.87612e-06
372 1 0.000226666 2650.0 0.00830463 0.00553295 -1.23704e-05
373 1 0.000253334 2650.0 0.00871418 0.00552956 -1.26394e-05
374 1 0.0001733334 2650.0 0.00909257 0.00555846 -2.61825e-06
375 1 0.0001466666 2650.0 0.00949824 0.00553614 1.175e-05
376 1 0.000226666 2650.0 4.07114e-06 0.00593494 1.52149e-05
377 1 0.0001466666 2650.0 0.000379837 0.00593565 -1.20414e-05
378 1 0.0001466666 2650.0 0.000781896 0.00593791 1.91132e-07
379 1 0.0001733334 2650.0 0.00119275 0.00593288 -9.94439e-07
380 1 0.0001466666 2650.0 0.00158887 0.00594323 -4.50073e-06
381 1 0.0001466666 2650.0 0.00199029 0.00594857 -1.53755e-05
382 1 0.0001733334 2650.0 0.00238246 0.00593486 -8.94352e-07
383 1 0.0001466666 2650.0 0.00277424 0.00594016 1.52244e-05
384 1 0.00028 2650.0 0.00318087 0.00593013 -4.80985e-06
385 1 0.0001733334 2650.0 0.00356279 0.00595023 6.04652e-06
386 1 0.00012 2650.0 0.00394512 0.0059277 -3.9989e-06
387 1 0.00012 2650.0 0.00434415 0.00594973 -4.53753e-06
388 1 0.00012 2650.0 0.00475926 0.00593301 1.44213e-05
389 1 0.0001733334 2650.0 0.00514212 0.00593751 1.25692e-07
390 1 0.0002 2650.0 0.0055505 0.00593707 6.49374e-06
391 1 0.0001733334 2650.0 0.00592467 0.00594055 -1.60293e-05
392 1 0.0001466666 2650.0 0.0063375 0.00594391 -8.40185e-07
393 1 0.000253334 2650.0 0.00673742 0.00595018 -2.60479e-06
394 1 0.0001466666 2650.0 0.00712177 0.00593894 8.91223e-07
395 1 0.0001466666 2650.0 0.007534 0.0059409 -8.21749e-06
396 1 0.00012 2650.0 0.0079298 0.00593551 -1.9928e-06
397 1 0.000306666 2650.0 0.00832459 0.00593737 -1.44251e-05
398 1 0.0001466666 2650.0 0.00871879 0.00593829 1.40858e-05
399 1 0.000253334 2650.0 0.00910057 0.00592672 2.00711e-06
400 1 0.0001733334 2650.0 0.00950914 0.00593702 -1.12877e-05
401 1 0.000333334 2650.0 -1.08108e-05 0.00633858 1.28382e-05
402 1 0.000253334 2650.0 0.000384179 0.00633378 -1.93459e-06
403 1 0.000226666 2650.0 0.000806944 0.00633293 1.11843e-05
404 1 0.0002 2650.0 0.00117723 0.00635119 -3.07839e-06
405 1 0.00012 2650.0 0.00158827 0.00634159 6.89249e-06
406 1 0.000253334 2650.0 0.00199203 0.00632412 2.05119e-06
407 1 0.0001733334 2650.0 0.00237673 0.00634477 9.2103e-06
408 1 0.00012 2650.0 0.00276238 0.00632803 -1.47672e-05
409 1 0.0001466666 2650.0 0.00315925 0.00632422 -7.09543e-06
410 1 0.00012 2650.0 0.00357543 0.0063519 -5.98958e-06
411 1 0.00012 2650.0 0.00395996 0.00634889 -1.06225e-05
412 1 0.0001733334 2650.0 0.0043478 0.00634611 -1.01661e-05
413 1 0.00012 2650.0 0.00476723 0.00635153 5.55995e-06
414 1 0.0001466666 2650.0 0.00515246 0.0063375 -1.52432e-05
415 1 0.00028 2650.0 0.00553787 0.00633464 -1.02347e-05
416 1 0.0001466666 2650.0 0.00593781 0.00632763 9.15057e-06
417 1 0.000253334 2650.0 0.00632682 0.00633865 -8.80068e-06
418 1 0.00012 2650.0 0.00672492 0.00634505 -6.08707e-06
419 1 0.0002 2650.0 0.00714182 0.00634084 1.01507e-05
420 1 0.0002 2650.0 0.00754012 0.0063241 -1.31156e-05
421 1 0.0001733334 2650.0 0.00790412 0.00633694 7.85041e-06
422 1 0.00012 2650.0 0.00832496 0.00633574 6.63645e-06
423 1 0.0001466666 2650.0 0.00869764 0.00632258 1.16646e-05
424 1 0.00028 2650.0 0.00910208 0.00633842 9.61404e-06
425 1 0.0001733334 2650.0 0.00950831 0.00634404 6.75028e-06
426 1 0.0001466666 2650.0 -1.28201e-05 0.00672514 -3.91311e-06
427 1 0.0001466666 2650.0 0.000400429 0.00674214 1.36564e-05
428 1 0.00012 2650.0 0.000792816 0.006742 7.64085e-06
429 1 0.0001466666 2650.0 0.00117419 0.00673136 -8.52453e-06
430 1 0.0001466666 2650.0 0.00158501 0.00672525 -4.95376e-06
431 1 0.0001466666 2650.0 0.00199009 0.00674612 -6.38534e-06
432 1 0.0002 2650.0 0.00236633 0.00673668 -1.59318e-05
433 1 0.0001466666 2650.0 0.00275931 0.00671842 -1.57992e-05
434 1 0.00012 2650.0 0.0031816 0.00673846 1.61803e-06
435 1 0.0001466666 2650.0 0.00357462 0.00672617 -6.61907e-06
436 1 0.0001733334 2650.0 0.00397493 0.0067394 -9.28931e-06
437 1 0.0001733334 2650.0 0.00436623 0.00673468 1.4311e-05
438 1 0.0001466666 2650.0 0.00473878 0.00673409 1.57673e-05
439 1 0.0001733334 2650.0 0.0051497 0.00674771 -9.13372e-06
440 1 0.0001733334 2650.0 0.00554474 0.00672804 -5.02886e-06
441 1 0.00012 2650.0 0.00595148 0.00671824 1.41674e-05
442 1 0.0001466666 2650.0 0.0063399 0.00673551 2.25389e-08
443 1 0.000226666 2650.0 0.00672203 0.00671741 -1.03006e-05
444 1 0.0001466666 2650.0 0.00711886 0.00672495 9.40148e-07
445 1 0.000253334 2650.0 0.00751385 0.00672379 5.41918e-06
446 1 0.0002 2650.0 0.00792373 0.00674723 -6.78748e-06
447 1 0.00028 2650.0 0.00831929 0.00674555 -4.01693e-06
448 1 0.0001733334 2650.0 0.00872106 0.0067302 -1.01722e-05
449 1 0.0001466666 2650.0 0.00911943 0.00674151 4.14157e-06
450 1 0.000253334 2650.0 0.00951621 0.00673793 8.91672e-06
451 1 0.000253334 2650.0 1.33053e-05 0.00712573 -9.11623e-06
452 1 0.000253334 2650.0 0.000399205 0.00711825 -2.08675e-06
453 1 0.0001466666 2650.0 0.000776737 0.00713953 1.59976e-05
454 1 0.000253334 2650.0 0.00120393 0.0071342 -9.67006e-06
455 1 0.000253334 2650.0 0.00157774 0.00711356 -5.68539e-06
456 1 0.00012 2650.0 0.00197332 0.00713207 1.41633e-06
457 1 0.00012 2650.0 0.00236625 0.00711395 -1.4711e-05
458 1 0.0001733334 2650.0 0.00276854 0.0071153 9.61443e-08
459 1 0.0001466666 2650.0 0.00316389 0.0071192 -1.38765e-06
460 1 0.0001466666 2650.0 0.0035697 0.00712867 -3.66755e-06
461 1 0.0001466666 2650.0 0.00394437 0.00711231 -2.33093e-06
462 1 0.0001466666 2650.0 0.00435163 0.00711732 -2.40638e-06
463 1 0.000306666 2650.0 0.00474311 0.00713504 2.86267e-06
464 1 0.00036 2650.0 0.00514686 0.00711234 7.56827e-06
465 1 0.0002 2650.0 0.00554145 0.00711768 -1.51691e-05
466 1 0.0002 2650.0 0.00594799 0.00711544 6.53448e-06
467 1 0.0001733334 2650.0 0.00632508 0.00713717 -6.66009e-06
468 1 0.00028 2650.0 0.0067378 0.00711665 1.10892e-05
469 1 0.000333334 2650.0 0.00713863 0.00713309 -1.3408e-05
470 1 0.0002 2650.0 0.00751718 0.00711221 2.46491e-06
471 1 0.000306666 2650.0 0.00790807 0.00712202 -7.36804e-06
472 1 0.000333334 2650.0 0.00831411 0.00711503 -8.5161e-06
473 1 0.0001733334 2650.0 0.00872514 0.00711937 1.14133e-05
474 1 0.0001466666 2650.0 0.00912304 0.00713315 -1.50086e-05
475 1 0.0001733334 2650.0 0.009489 0.0071188 1.18447e-05
476 1 0.0001466666 2650.0 8.01746e-06 0.00752177 -5.54803e-07
477 1 0.000306666 2650.0 0.000402621 0.00751517 -1.37551e-05
478 1 0.0001733334 2650.0 0.000784727 0.00752497 -1.38115e-05
479 1 0.00028 2650.0 0.00117193 0.00751194 -5.86632e-06
480 1 0.00012 2650.0 0.0015819 0.00752898 1.08348e-06
481 1 0.0002 2650.0 0.00198119 0.00753936 -6.77496e-06
482 1 0.0002 2650.0 0.00236284 0.00751329 -5.89346e-07
483 1 0.00012 2650.0 0.00278127 0.00753297 -8.2183e-06
484 1 0.0002 2650.0 0.00316427 0.00751647 -9.51869e-06
485 1 0.0002 2650.0 0.00357455 0.00751256 1.59e-05
486 1 0.000226666 2650.0 0.00395666 0.00752342 1.43777e-05
487 1 0.0002 2650.0 0.00436204 0.00752311 -2.84867e-06
488 1 0.0001733334 2650.0 0.00476166 0.00751966 1.99136e-06
489 1 0.0001466666 2650.0 0.0051476 0.00751242 -7.04093e-06
490 1 0.000226666 2650.0 0.00553194 0.00751212 -1.11489e-05
491 1 0.0001733334 2650.0 0.00593001 0.00753955 -6.70676e-06
492 1 0.0001733334 2650.0 0.00633509 0.00751152 -1.32944e-05
493 1 0.0001466666 2650.0 0.00672384 0.00752992 1.32067e-05
494 1 0.0002 2650.0 0.0071205 0.00751597 2.69177e-06
495 1 0.0001733334 2650.0 0.00753414 0.00753693 -1.29963e-05
496 1 0.00012 2650.0 0.00793278 0.00751024 -1.29239e-05
497 1 0.00012 2650.0 0.00831375 0.00751847 -1.51862e-05
498 1 0.0001733334 2650.0 0.00872398 0.0075319 1.50944e-05
499 1 0.0001466666 2650.0 0.00910821 0.00751213 9.0271e-06
500 1 0.000226666 2650.0 0.00949331 0.00750987 -1.22708e-05
501 1 0.00028 2650.0 -8.57119e-06 0.00791445 -2.73299e-06
502 1 0.000226666 2650.0 0.000405818 0.00791088 5.79434e-06
503 1 0.00028 2650.0 0.000782999 0.00791051 7.88774e-06
504 1 0.0001466666 2650.0 0.00117637 0.00791984 -6.95381e-06
505 1 0.0001466666 2650.0 0.00157812 0.00790633 -1.60065e-05
506 1 0.000253334 2650.0 0.00197675 0.00790955 4.79484e-07
507 1 0.00036 2650.0 0.00236707 0.00791785 -1.44096e-05
508 1 0.0002 2650.0 0.00277949 0.00790458 1.29265e-05
509 1 0.00012 2650.0 0.00318206 0.00792322 -6.06887e-06
510 1 0.0002 2650.0 0.0035597 0.00792167 8.35436e-06
511 1 0.000226666 2650.0 0.00395005 0.00792707 -5.09628e-06
512 1 0.00012 2650.0 0.00436842 0.00791541 -5.91751e-06