<?xml version="1.0"?>
<VTKFile type="PolyData" version="0.1" byte_order="LittleEndian" header_type="UInt32">
  <PolyData>
    <Piece NumberOfPoints="972" NumberOfVerts="0" NumberOfLines="0" NumberOfStrips="0" NumberOfPolys="324">
      <PointData>
      </PointData>
      <CellData>
        <DataArray type="Float64" Name="normal_stress_average" format="ascii" RangeMin="0" RangeMax="0">
          0 0 0 0 0 0
          0 0 0 0 0 0
          0 0 0 0 0 0
          0 0 0 0 0 0
          0 0 0 0 0 0
          0 0 0 0 0 0
          0 0 0 0 0 0
          0 0 0 0 0 0
          0 0 0 0 0 0
          0 0 0 0 0 0
          0 0 0 0 0 0
          0 0 0 0 0 0
          0 0 0 0 0 0
          0 0 0 0 0 0
          0 0 0 0 0 0
          0 0 0 0 0 0
          0 0 0 0 0 0
          0 0 0 0 0 0
          0 0 0 0 0 0
          0 0 0 0 0 0
          0 0 0 0 0 0
          0 0 0 0 0 0
          0 0 0 0 0 0
          0 0 0 0 0 0
          0 0 0 0 0 0
          0 0 0 0 0 0
          0 0 0 0 0 0
          0 0 0 0 0 0
          0 0 0 0 0 0
          0 0 0 0 0 0
          0 0 0 0 0 0
          0 0 0 0 0 0
          0 0 0 0 0 0
          0 0 0 0 0 0
          0 0 0 0 0 0
          0 0 0 0 0 0
          0 0 0 0 0 0
          0 0 0 0 0 0
          0 0 0 0 0 0
          0 0 0 0 0 0
          0 0 0 0 0 0
          0 0 0 0 0 0
          0 0 0 0 0 0
          0 0 0 0 0 0
          0 0 0 0 0 0
          0 0 0 0 0 0
          0 0 0 0 0 0
          0 0 0 0 0 0
          0 0 0 0 0 0
          0 0 0 0 0 0
          0 0 0 0 0 0
          0 0 0 0 0 0
          0 0 0 0 0 0
          0 0 0 0 0 0
        </DataArray>
        <DataArray type="Float64" Name="shear_stress_average" format="ascii" RangeMin="0" RangeMax="0">
          0 0 0 0 0 0
          0 0 0 0 0 0
          0 0 0 0 0 0
          0 0 0 0 0 0
          0 0 0 0 0 0
          0 0 0 0 0 0
          0 0 0 0 0 0
          0 0 0 0 0 0
          0 0 0 0 0 0
          0 0 0 0 0 0
          0 0 0 0 0 0
          0 0 0 0 0 0
          0 0 0 0 0 0
          0 0 0 0 0 0
          0 0 0 0 0 0
          0 0 0 0 0 0
          0 0 0 0 0 0
          0 0 0 0 0 0
          0 0 0 0 0 0
          0 0 0 0 0 0
          0 0 0 0 0 0
          0 0 0 0 0 0
          0 0 0 0 0 0
          0 0 0 0 0 0
          0 0 0 0 0 0
          0 0 0 0 0 0
          0 0 0 0 0 0
          0 0 0 0 0 0
          0 0 0 0 0 0
          0 0 0 0 0 0
          0 0 0 0 0 0
          0 0 0 0 0 0
          0 0 0 0 0 0
          0 0 0 0 0 0
          0 0 0 0 0 0
          0 0 0 0 0 0
          0 0 0 0 0 0
          0 0 0 0 0 0
          0 0 0 0 0 0
          0 0 0 0 0 0
          0 0 0 0 0 0
          0 0 0 0 0 0
          0 0 0 0 0 0
          0 0 0 0 0 0
          0 0 0 0 0 0
          0 0 0 0 0 0
          0 0 0 0 0 0
          0 0 0 0 0 0
          0 0 0 0 0 0
          0 0 0 0 0 0
          0 0 0 0 0 0
          0 0 0 0 0 0
          0 0 0 0 0 0
          0 0 0 0 0 0
        </DataArray>
      </CellData>
      <Points>
        <DataArray type="Float32" Name="Points" NumberOfComponents="3" format="ascii" RangeMin="0.00039702952404839227" RangeMax="0.020657870670349795">
          0.009111554361879826 0.0025423855986446142 -0.0002740000491030514 0.010644286870956421 0.00205309153534472 -0.0002740000491030514
          0.010546811856329441 0.0034488197416067123 -0.0002740000491030514 0.010542122647166252 0.006715454626828432 -0.0002740000491030514
          0.01056729070842266 0.008155670017004013 -0.0002740000491030514 0.009083135984838009 0.00754747586324811 -0.0002740000491030514
          0.0012285580160096288 0.007898706942796707 -0.0002740000491030514 0.0020678096916526556 0.006394695490598679 -0.0002740000491030514
          0.002823414746671915 0.007660128641873598 -0.0002740000491030514 0.010546811856329441 0.0034488197416067123 -0.0002740000491030514
          0.009375454857945442 0.0039032348431646824 -0.0002740000491030514 0.009111554361879826 0.0025423855986446142 -0.0002740000491030514
          0.009083135984838009 0.00754747586324811 -0.0002740000491030514 0.009384729899466038 0.006146300584077835 -0.0002740000491030514
          0.010542122647166252 0.006715454626828432 -0.0002740000491030514 0.0012285580160096288 0.007898706942796707 -0.0002740000491030514
          0.0008202476310543716 0.0066066463477909565 -0.0002740000491030514 0.0020678096916526556 0.006394695490598679 -0.0002740000491030514
          0.0011222946923226118 0.0022585580591112375 -0.0002740000491030514 0.0026729111559689045 0.002376972232013941 -0.0002740000491030514
          0.0019502234645187855 0.003709769109264016 -0.0002740000491030514 0.0035484859254211187 0.0010923901572823524 -0.0002740000491030514
          0.00429587671533227 0.0023993845097720623 -0.0002740000491030514 0.0026729111559689045 0.002376972232013941 -0.0002740000491030514
          0.0019502234645187855 0.003709769109264016 -0.0002740000491030514 0.0007331044180318713 0.0035800610203295946 -0.0002740000491030514
          0.0011222946923226118 0.0022585580591112375 -0.0002740000491030514 0.0011373034212738276 0.005074045620858669 -0.0002740000491030514
          0.0019502234645187855 0.003709769109264016 -0.0002740000491030514 0.002823414746671915 0.005039028823375702 -0.0002740000491030514
          0.0011373034212738276 0.005074045620858669 -0.0002740000491030514 0.002823414746671915 0.005039028823375702 -0.0002740000491030514
          0.0020678096916526556 0.006394695490598679 -0.0002740000491030514 0.005071115680038929 0.0037145554088056087 -0.0002740000491030514
          0.004310008138418198 0.005022349301725626 -0.0002740000491030514 0.003446697723120451 0.003645229386165738 -0.0002740000491030514
          0.0026729111559689045 0.002376972232013941 -0.0002740000491030514 0.00429587671533227 0.0023993845097720623 -0.0002740000491030514
          0.003446697723120451 0.003645229386165738 -0.0002740000491030514 0.00962681882083416 0.0010782434837892652 -0.0002740000491030514
          0.010644286870956421 0.00205309153534472 -0.0002740000491030514 0.009111554361879826 0.0025423855986446142 -0.0002740000491030514
          0.008824932388961315 0.005049428902566433 -0.0002740000491030514 0.009375454857945442 0.0039032348431646824 -0.0002740000491030514
          0.010353519581258297 0.0050695654936134815 -0.0002740000491030514 0.010353519581258297 0.0050695654936134815 -0.0002740000491030514
          0.009384729899466038 0.006146300584077835 -0.0002740000491030514 0.008824932388961315 0.005049428902566433 -0.0002740000491030514
          0.003446697723120451 0.003645229386165738 -0.0002740000491030514 0.004310008138418198 0.005022349301725626 -0.0002740000491030514
          0.002823414746671915 0.005039028823375702 -0.0002740000491030514 0.003446697723120451 0.003645229386165738 -0.0002740000491030514
          0.00429587671533227 0.0023993845097720623 -0.0002740000491030514 0.005071115680038929 0.0037145554088056087 -0.0002740000491030514
          0.01056729070842266 0.008155670017004013 -0.0002740000491030514 0.009412967599928379 0.008807418867945671 -0.0002740000491030514
          0.009083135984838009 0.00754747586324811 -0.0002740000491030514 0.002823414746671915 0.007660128641873598 -0.0002740000491030514
          0.0022312807850539684 0.008875696919858456 -0.0002740000491030514 0.0012285580160096288 0.007898706942796707 -0.0002740000491030514
          0.0019502234645187855 0.003709769109264016 -0.0002740000491030514 0.003446697723120451 0.003645229386165738 -0.0002740000491030514
          0.002823414746671915 0.005039028823375702 -0.0002740000491030514 0.001048816367983818 0.009562264196574688 -0.0002740000491030514
          0.0022312807850539684 0.008875696919858456 -0.0002740000491030514 0.0020667684730142355 0.010592620819807053 -0.0002740000491030514
          0.0022312807850539684 0.008875696919858456 -0.0002740000491030514 0.002946431515738368 0.009780844673514366 -0.0002740000491030514
          0.0020667684730142355 0.010592620819807053 -0.0002740000491030514 0.010353519581258297 0.0050695654936134815 -0.0002740000491030514
          0.009375454857945442 0.0039032348431646824 -0.0002740000491030514 0.010546811856329441 0.0034488197416067123 -0.0002740000491030514
          0.0019502234645187855 0.003709769109264016 -0.0002740000491030514 0.0026729111559689045 0.002376972232013941 -0.0002740000491030514
          0.003446697723120451 0.003645229386165738 -0.0002740000491030514 0.0026729111559689045 0.002376972232013941 -0.0002740000491030514
          0.002110755071043968 0.0010416872100904584 -0.0002740000491030514 0.0035484859254211187 0.0010923901572823524 -0.0002740000491030514
          0.008118869736790657 0.0011025234125554562 -0.0002740000491030514 0.009111554361879826 0.0025423855986446142 -0.0002740000491030514
          0.007363114506006241 0.0024171199183911085 -0.0002740000491030514 0.007363114506006241 0.0024171199183911085 -0.0002740000491030514
          0.008119938895106316 0.0037284791469573975 -0.0002740000491030514 0.006606611888855696 0.0037283217534422874 -0.0002740000491030514
          0.008876585401594639 -0.00020317039161454886 -0.0002740000491030514 0.008118869736790657 0.0011025234125554562 -0.0002740000491030514
          0.007363292388617992 -0.00020317039161454886 -0.0002740000491030514 0.005849999841302633 0.011903170496225357 -0.0002740000491030514
          0.0066066463477909565 0.010592620819807053 -0.0002740000491030514 0.007363292388617992 0.011903170496225357 -0.0002740000491030514
          0.006606611888855696 0.0037283217534422874 -0.0002740000491030514 0.008119938895106316 0.0037284791469573975 -0.0002740000491030514
          0.007362667936831713 0.005038611590862274 -0.0002740000491030514 0.00962681882083416 0.0010782434837892652 -0.0002740000491030514
          0.008118869736790657 0.0011025234125554562 -0.0002740000491030514 0.008876585401594639 -0.00020317039161454886 -0.0002740000491030514
          0.010441092774271965 0.009640381671488285 -0.0002740000491030514 0.01056729070842266 0.008155670017004013 -0.0002740000491030514
          0.011903170496225357 0.008876585401594639 -0.0002740000491030514 0.0020667684730142355 0.010592620819807053 -0.0002740000491030514
          0.0035800610203295946 0.010592620819807053 -0.0002740000491030514 0.002823414746671915 0.011903170496225357 -0.0002740000491030514
          0.009111554361879826 0.0025423855986446142 -0.0002740000491030514 0.008119938895106316 0.0037284791469573975 -0.0002740000491030514
          0.007363114506006241 0.0024171199183911085 -0.0002740000491030514 0.008119938895106316 0.0037284791469573975 -0.0002740000491030514
          0.008824932388961315 0.005049428902566433 -0.0002740000491030514 0.007362667936831713 0.005038611590862274 -0.0002740000491030514
          0.0066066463477909565 0.001107379444874823 -0.0002740000491030514 0.005088086239993572 0.0011048587039113045 -0.0002740000491030514
          0.005849999841302633 -0.00020317039161454886 -0.0002740000491030514 0.011903170496225357 0.005849999841302633 -0.0002740000491030514
          0.010353519581258297 0.0050695654936134815 -0.0002740000491030514 0.011903170496225357 0.004336707293987274 -0.0002740000491030514
          0.011903170496225357 0.008876585401594639 -0.0002740000491030514 0.01056729070842266 0.008155670017004013 -0.0002740000491030514
          0.011903170496225357 0.007363292388617992 -0.0002740000491030514 0.002823414746671915 0.011903170496225357 -0.0002740000491030514
          0.0035800610203295946 0.010592620819807053 -0.0002740000491030514 0.004336707293987274 0.011903170496225357 -0.0002740000491030514
          0.007363172248005867 0.007660051807761192 -0.0002740000491030514 0.009083135984838009 0.00754747586324811 -0.0002740000491030514
          0.00810927152633667 0.008904709480702877 -0.0002740000491030514 0.004336584359407425 0.00766005041077733 -0.0002740000491030514
          0.005093353800475597 0.00897067878395319 -0.0002740000491030514 0.003590045962482691 0.008905258029699326 -0.0002740000491030514
          0.005849999841302633 -0.00020317039161454886 -0.0002740000491030514 0.005088086239993572 0.0011048587039113045 -0.0002740000491030514
          0.004336707293987274 -0.00020317039161454886 -0.0002740000491030514 0.004336707293987274 -0.00020317039161454886 -0.0002740000491030514
          0.005088086239993572 0.0011048587039113045 -0.0002740000491030514 0.0035484859254211187 0.0010923901572823524 -0.0002740000491030514
          0.007363292388617992 -0.00020317039161454886 -0.0002740000491030514 0.0066066463477909565 0.001107379444874823 -0.0002740000491030514
          0.005849999841302633 -0.00020317039161454886 -0.0002740000491030514 0.01038987748324871 -0.00020317039161454886 -0.0002740000491030514
          0.00962681882083416 0.0010782434837892652 -0.0002740000491030514 0.008876585401594639 -0.00020317039161454886 -0.0002740000491030514
          0.011903170496225357 0.004336707293987274 -0.0002740000491030514 0.010353519581258297 0.0050695654936134815 -0.0002740000491030514
          0.010546811856329441 0.0034488197416067123 -0.0002740000491030514 0.011903170496225357 0.007363292388617992 -0.0002740000491030514
          0.010542122647166252 0.006715454626828432 -0.0002740000491030514 0.011903170496225357 0.005849999841302633 -0.0002740000491030514
          0.011903170496225357 0.01038987748324871 -0.0002740000491030514 0.010441092774271965 0.009640381671488285 -0.0002740000491030514
          0.011903170496225357 0.008876585401594639 -0.0002740000491030514 0.007363292388617992 0.011903170496225357 -0.0002740000491030514
          0.0066066463477909565 0.010592620819807053 -0.0002740000491030514 0.008116175420582294 0.010638140141963959 -0.0002740000491030514
          0.004336707293987274 0.011903170496225357 -0.0002740000491030514 0.005093353800475597 0.010592620819807053 -0.0002740000491030514
          0.005849999841302633 0.011903170496225357 -0.0002740000491030514 0.001310122199356556 0.011903170496225357 -0.0002740000491030514
          0.0020667684730142355 0.010592620819807053 -0.0002740000491030514 0.002823414746671915 0.011903170496225357 -0.0002740000491030514
          -0.00020317039161454886 0.004336707293987274 -0.0002740000491030514 0.0011373034212738276 0.005074045620858669 -0.0002740000491030514
          -0.00020317039161454886 0.005849999841302633 -0.0002740000491030514 -0.00020317039161454886 0.001310122199356556 -0.0002740000491030514
          0.0011222946923226118 0.0022585580591112375 -0.0002740000491030514 -0.00020317039161454886 0.002823414746671915 -0.0002740000491030514
          0.005849970504641533 0.0024177944287657738 -0.0002740000491030514 0.005088086239993572 0.0011048587039113045 -0.0002740000491030514
          0.0066066463477909565 0.001107379444874823 -0.0002740000491030514 0.005071115680038929 0.0037145554088056087 -0.0002740000491030514
          0.00429587671533227 0.0023993845097720623 -0.0002740000491030514 0.005849970504641533 0.0024177944287657738 -0.0002740000491030514
          0.006606611888855696 0.0037283217534422874 -0.0002740000491030514 0.005846288055181503 0.005036681890487671 -0.0002740000491030514
          0.005071115680038929 0.0037145554088056087 -0.0002740000491030514 0.005849999841302633 0.007660128641873598 -0.0002740000491030514
          0.005093353800475597 0.00897067878395319 -0.0002740000491030514 0.004336584359407425 0.00766005041077733 -0.0002740000491030514
          0.0066066463477909565 0.00897067878395319 -0.0002740000491030514 0.005093353800475597 0.00897067878395319 -0.0002740000491030514
          0.005849999841302633 0.007660128641873598 -0.0002740000491030514 0.007363292388617992 -0.00020317039161454886 -0.0002740000491030514
          0.008118869736790657 0.0011025234125554562 -0.0002740000491030514 0.0066066463477909565 0.001107379444874823 -0.0002740000491030514
          0.011903170496225357 0.007363292388617992 -0.0002740000491030514 0.01056729070842266 0.008155670017004013 -0.0002740000491030514
          0.010542122647166252 0.006715454626828432 -0.0002740000491030514 0.005093353800475597 0.010592620819807053 -0.0002740000491030514
          0.0066066463477909565 0.010592620819807053 -0.0002740000491030514 0.005849999841302633 0.011903170496225357 -0.0002740000491030514
          0.004336707293987274 0.011903170496225357 -0.0002740000491030514 0.0035800610203295946 0.010592620819807053 -0.0002740000491030514
          0.005093353800475597 0.010592620819807053 -0.0002740000491030514 0.006606611888855696 0.0037283217534422874 -0.0002740000491030514
          0.005071115680038929 0.0037145554088056087 -0.0002740000491030514 0.005849970504641533 0.0024177944287657738 -0.0002740000491030514
          0.005849970504641533 0.0024177944287657738 -0.0002740000491030514 0.00429587671533227 0.0023993845097720623 -0.0002740000491030514
          0.005088086239993572 0.0011048587039113045 -0.0002740000491030514 0.006606611888855696 0.0037283217534422874 -0.0002740000491030514
          0.007362667936831713 0.005038611590862274 -0.0002740000491030514 0.005846288055181503 0.005036681890487671 -0.0002740000491030514
          0.007362667936831713 0.005038611590862274 -0.0002740000491030514 0.006605923641473055 0.006349117960780859 -0.0002740000491030514
          0.005846288055181503 0.005036681890487671 -0.0002740000491030514 0.006605923641473055 0.006349117960780859 -0.0002740000491030514
          0.005092614330351353 0.006349110975861549 -0.0002740000491030514 0.005846288055181503 0.005036681890487671 -0.0002740000491030514
          0.005092614330351353 0.006349110975861549 -0.0002740000491030514 0.004310008138418198 0.005022349301725626 -0.0002740000491030514
          0.005846288055181503 0.005036681890487671 -0.0002740000491030514 0.007362667936831713 0.005038611590862274 -0.0002740000491030514
          0.008119938895106316 0.006349578965455294 -0.0002740000491030514 0.006605923641473055 0.006349117960780859 -0.0002740000491030514
          0.006605923641473055 0.006349117960780859 -0.0002740000491030514 0.005849999841302633 0.007660128641873598 -0.0002740000491030514
          0.005092614330351353 0.006349110975861549 -0.0002740000491030514 0.006605923641473055 0.006349117960780859 -0.0002740000491030514
          0.007363172248005867 0.007660051807761192 -0.0002740000491030514 0.005849999841302633 0.007660128641873598 -0.0002740000491030514
          0.004336584359407425 0.00766005041077733 -0.0002740000491030514 0.00357991736382246 0.006349487695842981 -0.0002740000491030514
          0.005092614330351353 0.006349110975861549 -0.0002740000491030514 0.007363172248005867 0.007660051807761192 -0.0002740000491030514
          0.00810927152633667 0.008904709480702877 -0.0002740000491030514 0.0066066463477909565 0.00897067878395319 -0.0002740000491030514
          0.007363172248005867 0.007660051807761192 -0.0002740000491030514 0.008119938895106316 0.006349578965455294 -0.0002740000491030514
          0.009083135984838009 0.00754747586324811 -0.0002740000491030514 0.004336584359407425 0.00766005041077733 -0.0002740000491030514
          0.002823414746671915 0.007660128641873598 -0.0002740000491030514 0.00357991736382246 0.006349487695842981 -0.0002740000491030514
          0.002823414746671915 0.005039028823375702 -0.0002740000491030514 0.004310008138418198 0.005022349301725626 -0.0002740000491030514
          0.00357991736382246 0.006349487695842981 -0.0002740000491030514 0.004336707293987274 -0.00020317039161454886 -0.0002740000491030514
          0.0035484859254211187 0.0010923901572823524 -0.0002740000491030514 0.002823414746671915 -0.00020317039161454886 -0.0002740000491030514
          0.011903170496225357 0.004336707293987274 -0.0002740000491030514 0.010546811856329441 0.0034488197416067123 -0.0002740000491030514
          0.011903170496225357 0.002823414746671915 -0.0002740000491030514 0.010542122647166252 0.006715454626828432 -0.0002740000491030514
          0.010353519581258297 0.0050695654936134815 -0.0002740000491030514 0.011903170496225357 0.005849999841302633 -0.0002740000491030514
          0.00962681882083416 0.0010782434837892652 -0.0002740000491030514 0.009111554361879826 0.0025423855986446142 -0.0002740000491030514
          0.008118869736790657 0.0011025234125554562 -0.0002740000491030514 0.007363114506006241 0.0024171199183911085 -0.0002740000491030514
          0.006606611888855696 0.0037283217534422874 -0.0002740000491030514 0.005849970504641533 0.0024177944287657738 -0.0002740000491030514
          0.005846288055181503 0.005036681890487671 -0.0002740000491030514 0.004310008138418198 0.005022349301725626 -0.0002740000491030514
          0.005071115680038929 0.0037145554088056087 -0.0002740000491030514 0.008824932388961315 0.005049428902566433 -0.0002740000491030514
          0.008119938895106316 0.006349578965455294 -0.0002740000491030514 0.007362667936831713 0.005038611590862274 -0.0002740000491030514
          0.006605923641473055 0.006349117960780859 -0.0002740000491030514 0.008119938895106316 0.006349578965455294 -0.0002740000491030514
          0.007363172248005867 0.007660051807761192 -0.0002740000491030514 0.005849999841302633 0.007660128641873598 -0.0002740000491030514
          0.004336584359407425 0.00766005041077733 -0.0002740000491030514 0.005092614330351353 0.006349110975861549 -0.0002740000491030514
          0.00357991736382246 0.006349487695842981 -0.0002740000491030514 0.004310008138418198 0.005022349301725626 -0.0002740000491030514
          0.005092614330351353 0.006349110975861549 -0.0002740000491030514 0.004336584359407425 0.00766005041077733 -0.0002740000491030514
          0.003590045962482691 0.008905258029699326 -0.0002740000491030514 0.002823414746671915 0.007660128641873598 -0.0002740000491030514
          0.002823414746671915 0.007660128641873598 -0.0002740000491030514 0.0020678096916526556 0.006394695490598679 -0.0002740000491030514
          0.00357991736382246 0.006349487695842981 -0.0002740000491030514 0.007363292388617992 0.011903170496225357 -0.0002740000491030514
          0.008116175420582294 0.010638140141963959 -0.0002740000491030514 0.008876585401594639 0.011903170496225357 -0.0002740000491030514
          -0.00020317039161454886 0.007363292388617992 -0.0002740000491030514 0.0012285580160096288 0.007898706942796707 -0.0002740000491030514
          -0.00020317039161454886 0.008876585401594639 -0.0002740000491030514 0.007363114506006241 0.0024171199183911085 -0.0002740000491030514
          0.005849970504641533 0.0024177944287657738 -0.0002740000491030514 0.0066066463477909565 0.001107379444874823 -0.0002740000491030514
          0.007363172248005867 0.007660051807761192 -0.0002740000491030514 0.0066066463477909565 0.00897067878395319 -0.0002740000491030514
          0.005849999841302633 0.007660128641873598 -0.0002740000491030514 0.0020678096916526556 0.006394695490598679 -0.0002740000491030514
          0.002823414746671915 0.005039028823375702 -0.0002740000491030514 0.00357991736382246 0.006349487695842981 -0.0002740000491030514
          0.008118869736790657 0.0011025234125554562 -0.0002740000491030514 0.007363114506006241 0.0024171199183911085 -0.0002740000491030514
          0.0066066463477909565 0.001107379444874823 -0.0002740000491030514 0.005088086239993572 0.0011048587039113045 -0.0002740000491030514
          0.00429587671533227 0.0023993845097720623 -0.0002740000491030514 0.0035484859254211187 0.0010923901572823524 -0.0002740000491030514
          0.009580523706972599 0.010778181254863739 -0.0002740000491030514 0.008864047937095165 0.009788858704268932 -0.0002740000491030514
          0.010441092774271965 0.009640381671488285 -0.0002740000491030514 0.010441092774271965 0.009640381671488285 -0.0002740000491030514
          0.008864047937095165 0.009788858704268932 -0.0002740000491030514 0.009412967599928379 0.008807418867945671 -0.0002740000491030514
          0.010542122647166252 0.006715454626828432 -0.0002740000491030514 0.009384729899466038 0.006146300584077835 -0.0002740000491030514
          0.010353519581258297 0.0050695654936134815 -0.0002740000491030514 0.011903170496225357 0.002823414746671915 -0.0002740000491030514
          0.010644286870956421 0.00205309153534472 -0.0002740000491030514 0.011903170496225357 0.001310122199356556 -0.0002740000491030514
          0.008876585401594639 0.011903170496225357 -0.0002740000491030514 0.009580523706972599 0.010778181254863739 -0.0002740000491030514
          0.01038987748324871 0.011903170496225357 -0.0002740000491030514 -0.00020317039161454886 0.008876585401594639 -0.0002740000491030514
          0.001048816367983818 0.009562264196574688 -0.0002740000491030514 -0.00020317039161454886 0.01038987748324871 -0.0002740000491030514
          0.0020678096916526556 0.006394695490598679 -0.0002740000491030514 0.0008202476310543716 0.0066066463477909565 -0.0002740000491030514
          0.0011373034212738276 0.005074045620858669 -0.0002740000491030514 0.002823414746671915 -0.00020317039161454886 -0.0002740000491030514
          0.002110755071043968 0.0010416872100904584 -0.0002740000491030514 0.001310122199356556 -0.00020317039161454886 -0.0002740000491030514
          0.0035484859254211187 0.0010923901572823524 -0.0002740000491030514 0.002110755071043968 0.0010416872100904584 -0.0002740000491030514
          0.002823414746671915 -0.00020317039161454886 -0.0002740000491030514 0.0011373034212738276 0.005074045620858669 -0.0002740000491030514
          0.0007331044180318713 0.0035800610203295946 -0.0002740000491030514 0.0019502234645187855 0.003709769109264016 -0.0002740000491030514
          0.010546811856329441 0.0034488197416067123 -0.0002740000491030514 0.010644286870956421 0.00205309153534472 -0.0002740000491030514
          0.011903170496225357 0.002823414746671915 -0.0002740000491030514 0.008116175420582294 0.010638140141963959 -0.0002740000491030514
          0.009580523706972599 0.010778181254863739 -0.0002740000491030514 0.008876585401594639 0.011903170496225357 -0.0002740000491030514
          0.0012285580160096288 0.007898706942796707 -0.0002740000491030514 0.001048816367983818 0.009562264196574688 -0.0002740000491030514
          -0.00020317039161454886 0.008876585401594639 -0.0002740000491030514 0.0011222946923226118 0.0022585580591112375 -0.0002740000491030514
          0.002110755071043968 0.0010416872100904584 -0.0002740000491030514 0.0026729111559689045 0.002376972232013941 -0.0002740000491030514
          0.008119938895106316 0.006349578965455294 -0.0002740000491030514 0.009384729899466038 0.006146300584077835 -0.0002740000491030514
          0.009083135984838009 0.00754747586324811 -0.0002740000491030514 -0.00020317039161454886 0.007363292388617992 -0.0002740000491030514
          0.0008202476310543716 0.0066066463477909565 -0.0002740000491030514 0.0012285580160096288 0.007898706942796707 -0.0002740000491030514
          0.0011373034212738276 0.005074045620858669 -0.0002740000491030514 0.0008202476310543716 0.0066066463477909565 -0.0002740000491030514
          -0.00020317039161454886 0.005849999841302633 -0.0002740000491030514 0.009111554361879826 0.0025423855986446142 -0.0002740000491030514
          0.009375454857945442 0.0039032348431646824 -0.0002740000491030514 0.008119938895106316 0.0037284791469573975 -0.0002740000491030514
          0.0011222946923226118 0.0022585580591112375 -0.0002740000491030514 0.0007331044180318713 0.0035800610203295946 -0.0002740000491030514
          -0.00020317039161454886 0.002823414746671915 -0.0002740000491030514 -0.00020317039161454886 0.004336707293987274 -0.0002740000491030514
          0.0007331044180318713 0.0035800610203295946 -0.0002740000491030514 0.0011373034212738276 0.005074045620858669 -0.0002740000491030514
          0.001310122199356556 -0.00020317039161454886 -0.0002740000491030514 0.0009046366903930902 0.0009046366903930902 -0.0002740000491030514
          -0.00020317039161454886 -0.00020317039161454886 -0.0002740000491030514 -0.00020317039161454886 -0.00020317039161454886 -0.0002740000491030514
          0.0009046366903930902 0.0009046366903930902 -0.0002740000491030514 -0.00020317039161454886 0.001310122199356556 -0.0002740000491030514
          0.011903170496225357 -0.00020317039161454886 -0.0002740000491030514 0.01079536322504282 0.0009046366903930902 -0.0002740000491030514
          0.01038987748324871 -0.00020317039161454886 -0.0002740000491030514 0.011903170496225357 0.001310122199356556 -0.0002740000491030514
          0.01079536322504282 0.0009046366903930902 -0.0002740000491030514 0.011903170496225357 -0.00020317039161454886 -0.0002740000491030514
          0.011903170496225357 0.011903170496225357 -0.0002740000491030514 0.01079536322504282 0.01079536322504282 -0.0002740000491030514
          0.011903170496225357 0.01038987748324871 -0.0002740000491030514 0.01038987748324871 0.011903170496225357 -0.0002740000491030514
          0.01079536322504282 0.01079536322504282 -0.0002740000491030514 0.011903170496225357 0.011903170496225357 -0.0002740000491030514
          -0.00020317039161454886 0.011903170496225357 -0.0002740000491030514 0.0009046366903930902 0.01079536322504282 -0.0002740000491030514
          0.001310122199356556 0.011903170496225357 -0.0002740000491030514 -0.00020317039161454886 0.01038987748324871 -0.0002740000491030514
          0.0009046366903930902 0.01079536322504282 -0.0002740000491030514 -0.00020317039161454886 0.011903170496225357 -0.0002740000491030514
          0.010441092774271965 0.009640381671488285 -0.0002740000491030514 0.009412967599928379 0.008807418867945671 -0.0002740000491030514
          0.01056729070842266 0.008155670017004013 -0.0002740000491030514 0.009083135984838009 0.00754747586324811 -0.0002740000491030514
          0.009412967599928379 0.008807418867945671 -0.0002740000491030514 0.00810927152633667 0.008904709480702877 -0.0002740000491030514
          0.003590045962482691 0.008905258029699326 -0.0002740000491030514 0.0022312807850539684 0.008875696919858456 -0.0002740000491030514