<?xml version="1.0"?>
<VTKFile type="PolyData" version="0.1" byte_order="LittleEndian" header_type="UInt32">
  <PolyData>
    <Piece NumberOfPoints="972" NumberOfVerts="0" NumberOfLines="0" NumberOfStrips="0" NumberOfPolys="324">
      <PointData>
      </PointData>
      <CellData>
        <DataArray type="Float64" Name="normal_stress_average" format="ascii" RangeMin="0" RangeMax="0">
          0 0 0 0 0 0
          0 0 0 0 0 0
          0 0 0 0 0 0
          0 0 0 0 0 0
          0 0 0 0 0 0
          0 0 0 0 0 0
          0 0 0 0 0 0
          0 0 0 0 0 0
          0 0 0 0 0 0
          0 0 0 0 0 0
          0 0 0 0 0 0
          0 0 0 0 0 0
          0 0 0 0 0 0
          0 0 0 0 0 0
          0 0 0 0 0 0
          0 0 0 0 0 0
          0 0 0 0 0 0
          0 0 0 0 0 0
          0 0 0 0 0 0
          0 0 0 0 0 0
          0 0 0 0 0 0
          0 0 0 0 0 0
          0 0 0 0 0 0
          0 0 0 0 0 0
          0 0 0 0 0 0
          0 0 0 0 0 0
          0 0 0 0 0 0
          0 0 0 0 0 0
          0 0 0 0 0 0
          0 0 0 0 0 0
          0 0 0 0 0 0
          0 0 0 0 0 0
          0 0 0 0 0 0
          0 0 0 0 0 0
          0 0 0 0 0 0
          0 0 0 0 0 0
          0 0 0 0 0 0
          0 0 0 0 0 0
          0 0 0 0 0 0
          0 0 0 0 0 0
          0 0 0 0 0 0
          0 0 0 0 0 0
          0 0 0 0 0 0
          0 0 0 0 0 0
          0 0 0 0 0 0
          0 0 0 0 0 0
          0 0 0 0 0 0
          0 0 0 0 0 0
          0 0 0 0 0 0
          0 0 0 0 0 0
          0 0 0 0 0 0
          0 0 0 0 0 0
          0 0 0 0 0 0
          0 0 0 0 0 0
        </DataArray>
        <DataArray type="Float64" Name="shear_stress_average" format="ascii" RangeMin="0" RangeMax="0">
          0 0 0 0 0 0
          0 0 0 0 0 0
          0 0 0 0 0 0
          0 0 0 0 0 0
          0 0 0 0 0 0
          0 0 0 0 0 0
          0 0 0 0 0 0
          0 0 0 0 0 0
          0 0 0 0 0 0
          0 0 0 0 0 0
          0 0 0 0 0 0
          0 0 0 0 0 0
          0 0 0 0 0 0
          0 0 0 0 0 0
          0 0 0 0 0 0
          0 0 0 0 0 0
          0 0 0 0 0 0
          0 0 0 0 0 0
          0 0 0 0 0 0
          0 0 0 0 0 0
          0 0 0 0 0 0
          0 0 0 0 0 0
          0 0 0 0 0 0
          0 0 0 0 0 0
          0 0 0 0 0 0
          0 0 0 0 0 0
          0 0 0 0 0 0
          0 0 0 0 0 0
          0 0 0 0 0 0
          0 0 0 0 0 0
          0 0 0 0 0 0
          0 0 0 0 0 0
          0 0 0 0 0 0
          0 0 0 0 0 0
          0 0 0 0 0 0
          0 0 0 0 0 0
          0 0 0 0 0 0
          0 0 0 0 0 0
          0 0 0 0 0 0
          0 0 0 0 0 0
          0 0 0 0 0 0
          0 0 0 0 0 0
          0 0 0 0 0 0
          0 0 0 0 0 0
          0 0 0 0 0 0
          0 0 0 0 0 0
          0 0 0 0 0 0
          0 0 0 0 0 0
          0 0 0 0 0 0
          0 0 0 0 0 0
          0 0 0 0 0 0
          0 0 0 0 0 0
          0 0 0 0 0 0
          0 0 0 0 0 0
        </DataArray>
      </CellData>
      <Points>
        <DataArray type="Float32" Name="Points" NumberOfComponents="3" format="ascii" RangeMin="0.0007360199755703623" RangeMax="0.02098190186122747">
          0.009210016578435898 0.002404297236353159 -0.0002740000491030514 0.010865423828363419 0.0018956552958115935 -0.0002740000491030514
          0.010811894200742245 0.003475111210718751 -0.0002740000491030514 0.009361885488033295 0.003896654350683093 -0.0002740000491030514
          0.009210016578435898 0.002404297236353159 -0.0002740000491030514 0.010811894200742245 0.003475111210718751 -0.0002740000491030514
          0.001014887006022036 0.007993428967893124 -0.0002740000491030514 0.0018927516648545861 0.006419941782951355 -0.0002740000491030514
          0.0026834814343601465 0.007743819151073694 -0.0002740000491030514 0.01064716000109911 0.006722424179315567 -0.0002740000491030514
          0.010811894200742245 0.00822488870471716 -0.0002740000491030514 0.009090157225728035 0.007651925086975098 -0.0002740000491030514
          0.009090157225728035 0.007651925086975098 -0.0002740000491030514 0.009363855235278606 0.006186319515109062 -0.0002740000491030514
          0.01064716000109911 0.006722424179315567 -0.0002740000491030514 0.001014887006022036 0.007993428967893124 -0.0002740000491030514
          0.0005876984796486795 0.006641629617661238 -0.0002740000491030514 0.0018927516648545861 0.006419941782951355 -0.0002740000491030514
          0.012183036655187607 0.005849999841302633 -0.0002740000491030514 0.010446226224303246 0.005067259073257446 -0.0002740000491030514
          0.012183036655187607 0.004266740754246712 -0.0002740000491030514 0.000903710606507957 0.0020925085991621017 -0.0002740000491030514
          0.0025010353419929743 0.0022215053904801607 -0.0002740000491030514 0.0017699183663353324 0.0036108160857111216 -0.0002740000491030514
          0.0034416220150887966 0.0008726857486180961 -0.0002740000491030514 0.004240680951625109 0.0022502178326249123 -0.0002740000491030514
          0.0025010353419929743 0.0022215053904801607 -0.0002740000491030514 0.0017699183663353324 0.0036108160857111216 -0.0002740000491030514
          0.0004965262487530708 0.003475111210718751 -0.0002740000491030514 0.000903710606507957 0.0020925085991621017 -0.0002740000491030514
          0.01064716000109911 0.006722424179315567 -0.0002740000491030514 0.010446226224303246 0.005067259073257446 -0.0002740000491030514
          0.012183036655187607 0.005849999841302633 -0.0002740000491030514 0.012183036655187607 0.004266740754246712 -0.0002740000491030514
          0.010446226224303246 0.005067259073257446 -0.0002740000491030514 0.010811894200742245 0.003475111210718751 -0.0002740000491030514
          0.000919413345400244 0.005038169678300619 -0.0002740000491030514 0.0017699183663353324 0.0036108160857111216 -0.0002740000491030514
          0.0026834814343601465 0.005001533776521683 -0.0002740000491030514 0.000919413345400244 0.005038169678300619 -0.0002740000491030514
          0.0026834814343601465 0.005001533776521683 -0.0002740000491030514 0.0018927516648545861 0.006419941782951355 -0.0002740000491030514
          0.005026668775826693 0.00361158000305295 -0.0002740000491030514 0.004234653431922197 0.004983942955732346 -0.0002740000491030514
          0.003335581859573722 0.0035432924050837755 -0.0002740000491030514 0.0025010353419929743 0.0022215053904801607 -0.0002740000491030514
          0.004240680951625109 0.0022502178326249123 -0.0002740000491030514 0.003335581859573722 0.0035432924050837755 -0.0002740000491030514
          0.009801439009606838 0.0008576227119192481 -0.0002740000491030514 0.010865423828363419 0.0018956552958115935 -0.0002740000491030514
          0.009210016578435898 0.002404297236353159 -0.0002740000491030514 0.009363855235278606 0.006186319515109062 -0.0002740000491030514
          0.010446226224303246 0.005067259073257446 -0.0002740000491030514 0.01064716000109911 0.006722424179315567 -0.0002740000491030514
          0.003335581859573722 0.0035432924050837755 -0.0002740000491030514 0.004234653431922197 0.004983942955732346 -0.0002740000491030514
          0.0026834814343601465 0.005001533776521683 -0.0002740000491030514 0.003335581859573722 0.0035432924050837755 -0.0002740000491030514
          0.004240680951625109 0.0022502178326249123 -0.0002740000491030514 0.005026668775826693 0.00361158000305295 -0.0002740000491030514
          0.009363855235278606 0.006186319515109062 -0.0002740000491030514 0.008753301575779915 0.005017916671931744 -0.0002740000491030514
          0.010446226224303246 0.005067259073257446 -0.0002740000491030514 0.010446226224303246 0.005067259073257446 -0.0002740000491030514
          0.008753301575779915 0.005017916671931744 -0.0002740000491030514 0.009361885488033295 0.003896654350683093 -0.0002740000491030514
          0.010811894200742245 0.00822488870471716 -0.0002740000491030514 0.009552639909088612 0.008936859667301178 -0.0002740000491030514
          0.009090157225728035 0.007651925086975098 -0.0002740000491030514 0.0026834814343601465 0.007743819151073694 -0.0002740000491030514
          0.0020639703143388033 0.009015589021146297 -0.0002740000491030514 0.001014887006022036 0.007993428967893124 -0.0002740000491030514
          0.0017699183663353324 0.0036108160857111216 -0.0002740000491030514 0.003335581859573722 0.0035432924050837755 -0.0002740000491030514
          0.0026834814343601465 0.005001533776521683 -0.0002740000491030514 0.0008268349920399487 0.009733899496495724 -0.0002740000491030514
          0.0020639703143388033 0.009015589021146297 -0.0002740000491030514 0.0018918518908321857 0.010811894200742245 -0.0002740000491030514
          0.0020639703143388033 0.009015589021146297 -0.0002740000491030514 0.002812179271131754 0.009962588548660278 -0.0002740000491030514
          0.0018918518908321857 0.010811894200742245 -0.0002740000491030514 0.009361885488033295 0.003896654350683093 -0.0002740000491030514
          0.008039334788918495 0.003574201837182045 -0.0002740000491030514 0.009210016578435898 0.002404297236353159 -0.0002740000491030514
          0.010446226224303246 0.005067259073257446 -0.0002740000491030514 0.009361885488033295 0.003896654350683093 -0.0002740000491030514
          0.010811894200742245 0.003475111210718751 -0.0002740000491030514 0.0017699183663353324 0.0036108160857111216 -0.0002740000491030514
          0.0025010353419929743 0.0022215053904801607 -0.0002740000491030514 0.003335581859573722 0.0035432924050837755 -0.0002740000491030514
          0.0025010353419929743 0.0022215053904801607 -0.0002740000491030514 0.001937872264534235 0.0008193763205781579 -0.0002740000491030514
          0.0034416220150887966 0.0008726857486180961 -0.0002740000491030514 0.005843715742230415 0.0022560216020792723 -0.0002740000491030514
          0.004240680951625109 0.0022502178326249123 -0.0002740000491030514 0.005051287356764078 0.0008852601749822497 -0.0002740000491030514
          0.005051287356764078 0.0008852601749822497 -0.0002740000491030514 0.004240680951625109 0.0022502178326249123 -0.0002740000491030514
          0.0034416220150887966 0.0008726857486180961 -0.0002740000491030514 0.005026668775826693 0.00361158000305295 -0.0002740000491030514
          0.004240680951625109 0.0022502178326249123 -0.0002740000491030514 0.005843715742230415 0.0022560216020792723 -0.0002740000491030514
          0.009016518481075764 -0.0004830369434785098 -0.0002740000491030514 0.00822377111762762 0.0008830252918414772 -0.0002740000491030514
          0.007433259394019842 -0.0004830369434785098 -0.0002740000491030514 0.012183036655187607 0.009016518481075764 -0.0002740000491030514
          0.010811894200742245 0.00822488870471716 -0.0002740000491030514 0.012183036655187607 0.007433259394019842 -0.0002740000491030514
          0.0026834814343601465 0.012183036655187607 -0.0002740000491030514 0.003475111210718751 0.010811894200742245 -0.0002740000491030514
          0.004266740754246712 0.012183036655187607 -0.0002740000491030514 0.00822377111762762 0.0008830252918414772 -0.0002740000491030514
          0.009210016578435898 0.002404297236353159 -0.0002740000491030514 0.007398278918117285 0.0022383134346455336 -0.0002740000491030514
          0.00822377111762762 0.0008830252918414772 -0.0002740000491030514 0.007398278918117285 0.0022383134346455336 -0.0002740000491030514
          0.006641629617661238 0.0008881057729013264 -0.0002740000491030514 0.005849999841302633 0.012183036655187607 -0.0002740000491030514
          0.006641629617661238 0.010811894200742245 -0.0002740000491030514 0.007433259394019842 0.012183036655187607 -0.0002740000491030514
          0.005058370530605316 0.010811894200742245 -0.0002740000491030514 0.006641629617661238 0.010811894200742245 -0.0002740000491030514
          0.005849999841302633 0.012183036655187607 -0.0002740000491030514 0.004265136085450649 0.007744300179183483 -0.0002740000491030514
          0.0034854679834097624 0.009046550840139389 -0.0002740000491030514 0.0026834814343601465 0.007743819151073694 -0.0002740000491030514
          0.005849999841302633 -0.0004830369434785098 -0.0002740000491030514 0.005051287356764078 0.0008852601749822497 -0.0002740000491030514
          0.004266740754246712 -0.0004830369434785098 -0.0002740000491030514 0.007398278918117285 0.0022383134346455336 -0.0002740000491030514
          0.005843715742230415 0.0022560216020792723 -0.0002740000491030514 0.006641629617661238 0.0008881057729013264 -0.0002740000491030514
          0.005843715742230415 0.0022560216020792723 -0.0002740000491030514 0.005051287356764078 0.0008852601749822497 -0.0002740000491030514
          0.006641629617661238 0.0008881057729013264 -0.0002740000491030514 0.009801439009606838 0.0008576227119192481 -0.0002740000491030514
          0.009210016578435898 0.002404297236353159 -0.0002740000491030514 0.00822377111762762 0.0008830252918414772 -0.0002740000491030514
          0.0065999580547213554 0.003606275888159871 -0.0002740000491030514 0.005026668775826693 0.00361158000305295 -0.0002740000491030514
          0.005843715742230415 0.0022560216020792723 -0.0002740000491030514 0.0065999580547213554 0.003606275888159871 -0.0002740000491030514
          0.0072819688357412815 0.0049975961446762085 -0.0002740000491030514 0.005843760911375284 0.004997883923351765 -0.0002740000491030514
          0.004265136085450649 0.007744300179183483 -0.0002740000491030514 0.003472731215879321 0.0063733188435435295 -0.0002740000491030514
          0.005045696161687374 0.0063760485500097275 -0.0002740000491030514 0.0018927516648545861 0.006419941782951355 -0.0002740000491030514
          0.0026834814343601465 0.005001533776521683 -0.0002740000491030514 0.003472731215879321 0.0063733188435435295 -0.0002740000491030514
          0.004266740754246712 -0.0004830369434785098 -0.0002740000491030514 0.005051287356764078 0.0008852601749822497 -0.0002740000491030514
          0.0034416220150887966 0.0008726857486180961 -0.0002740000491030514 0.007433259394019842 -0.0004830369434785098 -0.0002740000491030514
          0.00822377111762762 0.0008830252918414772 -0.0002740000491030514 0.006641629617661238 0.0008881057729013264 -0.0002740000491030514
          0.009801439009606838 0.0008576227119192481 -0.0002740000491030514 0.00822377111762762 0.0008830252918414772 -0.0002740000491030514
          0.009016518481075764 -0.0004830369434785098 -0.0002740000491030514 0.012183036655187607 0.007433259394019842 -0.0002740000491030514
          0.010811894200742245 0.00822488870471716 -0.0002740000491030514 0.01064716000109911 0.006722424179315567 -0.0002740000491030514
          0.0106533607468009 0.009815629571676254 -0.0002740000491030514 0.010811894200742245 0.00822488870471716 -0.0002740000491030514
          0.012183036655187607 0.009016518481075764 -0.0002740000491030514 0.007433259394019842 0.012183036655187607 -0.0002740000491030514
          0.006641629617661238 0.010811894200742245 -0.0002740000491030514 0.008220951072871685 0.010859518311917782 -0.0002740000491030514
          0.004266740754246712 0.012183036655187607 -0.0002740000491030514 0.003475111210718751 0.010811894200742245 -0.0002740000491030514
          0.005058370530605316 0.010811894200742245 -0.0002740000491030514 0.0018918518908321857 0.010811894200742245 -0.0002740000491030514
          0.003475111210718751 0.010811894200742245 -0.0002740000491030514 0.0026834814343601465 0.012183036655187607 -0.0002740000491030514
          0.0065999580547213554 0.003606275888159871 -0.0002740000491030514 0.005843760911375284 0.004997883923351765 -0.0002740000491030514
          0.005026668775826693 0.00361158000305295 -0.0002740000491030514 0.005843760911375284 0.004997883923351765 -0.0002740000491030514
          0.004234653431922197 0.004983942955732346 -0.0002740000491030514 0.005026668775826693 0.00361158000305295 -0.0002740000491030514
          0.0072819688357412815 0.0049975961446762085 -0.0002740000491030514 0.0065718223340809345 0.006396556738764048 -0.0002740000491030514
          0.005843760911375284 0.004997883923351765 -0.0002740000491030514 0.0065718223340809345 0.006396556738764048 -0.0002740000491030514
          0.007375781424343586 0.007773701101541519 -0.0002740000491030514 0.0058362530544400215 0.007748361211270094 -0.0002740000491030514
          0.007375781424343586 0.007773701101541519 -0.0002740000491030514 0.006641629617661238 0.009114962071180344 -0.0002740000491030514
          0.0058362530544400215 0.007748361211270094 -0.0002740000491030514 0.006641629617661238 0.009114962071180344 -0.0002740000491030514
          0.005058370530605316 0.009114962071180344 -0.0002740000491030514 0.0058362530544400215 0.007748361211270094 -0.0002740000491030514
          0.0026834814343601465 0.007743819151073694 -0.0002740000491030514 0.0018927516648545861 0.006419941782951355 -0.0002740000491030514
          0.003472731215879321 0.0063733188435435295 -0.0002740000491030514 0.007433259394019842 -0.0004830369434785098 -0.0002740000491030514
          0.006641629617661238 0.0008881057729013264 -0.0002740000491030514 0.005849999841302633 -0.0004830369434785098 -0.0002740000491030514
          0.010599778033792973 -0.0004830369434785098 -0.0002740000491030514 0.009801439009606838 0.0008576227119192481 -0.0002740000491030514
          0.009016518481075764 -0.0004830369434785098 -0.0002740000491030514 0.012183036655187607 0.007433259394019842 -0.0002740000491030514
          0.01064716000109911 0.006722424179315567 -0.0002740000491030514 0.012183036655187607 0.005849999841302633 -0.0002740000491030514
          0.012183036655187607 0.010599778033792973 -0.0002740000491030514 0.0106533607468009 0.009815629571676254 -0.0002740000491030514
          0.012183036655187607 0.009016518481075764 -0.0002740000491030514 0.004266740754246712 0.012183036655187607 -0.0002740000491030514
          0.005058370530605316 0.010811894200742245 -0.0002740000491030514 0.005849999841302633 0.012183036655187607 -0.0002740000491030514
          0.001100222347304225 0.012183036655187607 -0.0002740000491030514 0.0018918518908321857 0.010811894200742245 -0.0002740000491030514
          0.0026834814343601465 0.012183036655187607 -0.0002740000491030514 -0.0004830369434785098 0.004266740754246712 -0.0002740000491030514
          0.000919413345400244 0.005038169678300619 -0.0002740000491030514 -0.0004830369434785098 0.005849999841302633 -0.0002740000491030514
          -0.0004830369434785098 0.001100222347304225 -0.0002740000491030514 0.000903710606507957 0.0020925085991621017 -0.0002740000491030514
          -0.0004830369434785098 0.0026834814343601465 -0.0002740000491030514 0.0065718223340809345 0.006396556738764048 -0.0002740000491030514
          0.0058362530544400215 0.007748361211270094 -0.0002740000491030514 0.005045696161687374 0.0063760485500097275 -0.0002740000491030514
          0.007375781424343586 0.007773701101541519 -0.0002740000491030514 0.008204386569559574 0.009020882658660412 -0.0002740000491030514
          0.006641629617661238 0.009114962071180344 -0.0002740000491030514 0.004265136085450649 0.007744300179183483 -0.0002740000491030514
          0.0026834814343601465 0.007743819151073694 -0.0002740000491030514 0.003472731215879321 0.0063733188435435295 -0.0002740000491030514
          0.004266740754246712 -0.0004830369434785098 -0.0002740000491030514 0.0034416220150887966 0.0008726857486180961 -0.0002740000491030514
          0.0026834814343601465 -0.0004830369434785098 -0.0002740000491030514 0.006641629617661238 0.0008881057729013264 -0.0002740000491030514
          0.005051287356764078 0.0008852601749822497 -0.0002740000491030514 0.005849999841302633 -0.0004830369434785098 -0.0002740000491030514
          0.012183036655187607 0.004266740754246712 -0.0002740000491030514 0.010811894200742245 0.003475111210718751 -0.0002740000491030514
          0.012183036655187607 0.0026834814343601465 -0.0002740000491030514 0.007433259394019842 0.012183036655187607 -0.0002740000491030514
          0.008220951072871685 0.010859518311917782 -0.0002740000491030514 0.009016518481075764 0.012183036655187607 -0.0002740000491030514
          -0.0004830369434785098 0.007433259394019842 -0.0002740000491030514 0.001014887006022036 0.007993428967893124 -0.0002740000491030514
          -0.0004830369434785098 0.009016518481075764 -0.0002740000491030514 0.007398278918117285 0.0022383134346455336 -0.0002740000491030514
          0.0065999580547213554 0.003606275888159871 -0.0002740000491030514 0.005843715742230415 0.0022560216020792723 -0.0002740000491030514
          0.0065718223340809345 0.006396556738764048 -0.0002740000491030514 0.005045696161687374 0.0063760485500097275 -0.0002740000491030514
          0.005843760911375284 0.004997883923351765 -0.0002740000491030514 0.005045696161687374 0.0063760485500097275 -0.0002740000491030514
          0.004234653431922197 0.004983942955732346 -0.0002740000491030514 0.005843760911375284 0.004997883923351765 -0.0002740000491030514
          0.0058362530544400215 0.007748361211270094 -0.0002740000491030514 0.004265136085450649 0.007744300179183483 -0.0002740000491030514
          0.005045696161687374 0.0063760485500097275 -0.0002740000491030514 0.003472731215879321 0.0063733188435435295 -0.0002740000491030514
          0.004234653431922197 0.004983942955732346 -0.0002740000491030514 0.005045696161687374 0.0063760485500097275 -0.0002740000491030514
          0.0058362530544400215 0.007748361211270094 -0.0002740000491030514 0.005058370530605316 0.009114962071180344 -0.0002740000491030514
          0.004265136085450649 0.007744300179183483 -0.0002740000491030514 0.007375781424343586 0.007773701101541519 -0.0002740000491030514
          0.009090157225728035 0.007651925086975098 -0.0002740000491030514 0.008204386569559574 0.009020882658660412 -0.0002740000491030514
          0.004265136085450649 0.007744300179183483 -0.0002740000491030514 0.005058370530605316 0.009114962071180344 -0.0002740000491030514
          0.0034854679834097624 0.009046550840139389 -0.0002740000491030514 0.0026834814343601465 0.005001533776521683 -0.0002740000491030514
          0.004234653431922197 0.004983942955732346 -0.0002740000491030514 0.003472731215879321 0.0063733188435435295 -0.0002740000491030514
          0.009090157225728035 0.007651925086975098 -0.0002740000491030514 0.008026539348065853 0.00638546934351325 -0.0002740000491030514
          0.009363855235278606 0.006186319515109062 -0.0002740000491030514 0.009753003716468811 0.011006033979356289 -0.0002740000491030514
          0.00900340173393488 0.009970970451831818 -0.0002740000491030514 0.0106533607468009 0.009815629571676254 -0.0002740000491030514
          0.0106533607468009 0.009815629571676254 -0.0002740000491030514 0.00900340173393488 0.009970970451831818 -0.0002740000491030514
          0.009552639909088612 0.008936859667301178 -0.0002740000491030514 0.012183036655187607 0.0026834814343601465 -0.0002740000491030514
          0.010865423828363419 0.0018956552958115935 -0.0002740000491030514 0.012183036655187607 0.001100222347304225 -0.0002740000491030514
          0.009016518481075764 0.012183036655187607 -0.0002740000491030514 0.009753003716468811 0.011006033979356289 -0.0002740000491030514
          0.010599778033792973 0.012183036655187607 -0.0002740000491030514 -0.0004830369434785098 0.009016518481075764 -0.0002740000491030514
          0.0008268349920399487 0.009733899496495724 -0.0002740000491030514 -0.0004830369434785098 0.010599778033792973 -0.0002740000491030514
          0.0018927516648545861 0.006419941782951355 -0.0002740000491030514 0.0005876984796486795 0.006641629617661238 -0.0002740000491030514
          0.000919413345400244 0.005038169678300619 -0.0002740000491030514 0.0026834814343601465 -0.0004830369434785098 -0.0002740000491030514
          0.001937872264534235 0.0008193763205781579 -0.0002740000491030514 0.001100222347304225 -0.0004830369434785098 -0.0002740000491030514
          0.0034416220150887966 0.0008726857486180961 -0.0002740000491030514 0.001937872264534235 0.0008193763205781579 -0.0002740000491030514
          0.0026834814343601465 -0.0004830369434785098 -0.0002740000491030514 0.000919413345400244 0.005038169678300619 -0.0002740000491030514
          0.0004965262487530708 0.003475111210718751 -0.0002740000491030514 0.0017699183663353324 0.0036108160857111216 -0.0002740000491030514
          0.010811894200742245 0.003475111210718751 -0.0002740000491030514 0.010865423828363419 0.0018956552958115935 -0.0002740000491030514
          0.012183036655187607 0.0026834814343601465 -0.0002740000491030514 0.008220951072871685 0.010859518311917782 -0.0002740000491030514
          0.009753003716468811 0.011006033979356289 -0.0002740000491030514 0.009016518481075764 0.012183036655187607 -0.0002740000491030514
          0.001014887006022036 0.007993428967893124 -0.0002740000491030514 0.0008268349920399487 0.009733899496495724 -0.0002740000491030514
          -0.0004830369434785098 0.009016518481075764 -0.0002740000491030514 0.0072819688357412815 0.0049975961446762085 -0.0002740000491030514
          0.008753301575779915 0.005017916671931744 -0.0002740000491030514 0.008026539348065853 0.00638546934351325 -0.0002740000491030514
          0.000903710606507957 0.0020925085991621017 -0.0002740000491030514 0.001937872264534235 0.0008193763205781579 -0.0002740000491030514
          0.0025010353419929743 0.0022215053904801607 -0.0002740000491030514 0.009210016578435898 0.002404297236353159 -0.0002740000491030514
          0.008039334788918495 0.003574201837182045 -0.0002740000491030514 0.007398278918117285 0.0022383134346455336 -0.0002740000491030514
          0.0065999580547213554 0.003606275888159871 -0.0002740000491030514 0.008039334788918495 0.003574201837182045 -0.0002740000491030514
          0.0072819688357412815 0.0049975961446762085 -0.0002740000491030514 0.000919413345400244 0.005038169678300619 -0.0002740000491030514
          0.0005876984796486795 0.006641629617661238 -0.0002740000491030514 -0.0004830369434785098 0.005849999841302633 -0.0002740000491030514
          -0.0004830369434785098 0.007433259394019842 -0.0002740000491030514 0.0005876984796486795 0.006641629617661238 -0.0002740000491030514
          0.001014887006022036 0.007993428967893124 -0.0002740000491030514 0.0072819688357412815 0.0049975961446762085 -0.0002740000491030514
          0.008026539348065853 0.00638546934351325 -0.0002740000491030514 0.0065718223340809345 0.006396556738764048 -0.0002740000491030514
          0.007375781424343586 0.007773701101541519 -0.0002740000491030514 0.008026539348065853 0.00638546934351325 -0.0002740000491030514
          0.009090157225728035 0.007651925086975098 -0.0002740000491030514 0.000903710606507957 0.0020925085991621017 -0.0002740000491030514
          0.0004965262487530708 0.003475111210718751 -0.0002740000491030514 -0.0004830369434785098 0.0026834814343601465 -0.0002740000491030514
          -0.0004830369434785098 0.004266740754246712 -0.0002740000491030514 0.0004965262487530708 0.003475111210718751 -0.0002740000491030514
          0.000919413345400244 0.005038169678300619 -0.0002740000491030514 -0.0004830369434785098 -0.0004830369434785098 -0.0002740000491030514
          0.0006759892567060888 0.0006759892567060888 -0.0002740000491030514 -0.0004830369434785098 0.001100222347304225 -0.0002740000491030514
          0.012183036655187607 -0.0004830369434785098 -0.0002740000491030514 0.011024010367691517 0.0006759892567060888 -0.0002740000491030514
          0.010599778033792973 -0.0004830369434785098 -0.0002740000491030514 0.012183036655187607 0.012183036655187607 -0.0002740000491030514
          0.011024010367691517 0.011024010367691517 -0.0002740000491030514 0.012183036655187607 0.010599778033792973 -0.0002740000491030514
          -0.0004830369434785098 0.012183036655187607 -0.0002740000491030514 0.0006759892567060888 0.011024010367691517 -0.0002740000491030514
          0.001100222347304225 0.012183036655187607 -0.0002740000491030514 0.001100222347304225 -0.0004830369434785098 -0.0002740000491030514
          0.0006759892567060888 0.0006759892567060888 -0.0002740000491030514 -0.0004830369434785098 -0.0004830369434785098 -0.0002740000491030514
          0.012183036655187607 0.001100222347304225 -0.0002740000491030514 0.011024010367691517 0.0006759892567060888 -0.0002740000491030514
          0.012183036655187607 -0.0004830369434785098 -0.0002740000491030514 0.010599778033792973 0.012183036655187607 -0.0002740000491030514
          0.011024010367691517 0.011024010367691517 -0.0002740000491030514 0.012183036655187607 0.012183036655187607 -0.0002740000491030514
          -0.0004830369434785098 0.010599778033792973 -0.0002740000491030514 0.0006759892567060888 0.011024010367691517 -0.0002740000491030514
          -0.0004830369434785098 0.012183036655187607 -0.0002740000491030514 0.008039334788918495 0.003574201837182045 -0.0002740000491030514
          0.008753301575779915 0.005017916671931744 -0.0002740000491030514 0.0072819688357412815 0.0049975961446762085 -0.0002740000491030514
          0.009090157225728035 0.007651925086975098 -0.0002740000491030514 0.009552639909088612 0.008936859667301178 -0.0002740000491030514
          0.008204386569559574 0.009020882658660412 -0.0002740000491030514 0.0106533607468009 0.009815629571676254 -0.0002740000491030514
          0.009552639909088612 0.008936859667301178 -0.0002740000491030514 0.010811894200742245 0.00822488870471716 -0.0002740000491030514
          0.0034854679834097624 0.009046550840139389 -0.0002740000491030514 0.0020639703143388033 0.009015589021146297 -0.0002740000491030514
          0.0026834814343601465 0.007743819151073694 -0.0002740000491030514 0.008026539348065853 0.00638546934351325 -0.0002740000491030514
          0.008753301575779915 0.005017916671931744 -0.0002740000491030514 0.009363855235278606 0.006186319515109062 -0.0002740000491030514
          0.007398278918117285 0.0022383134346455336 -0.0002740000491030514 0.008039334788918495 0.003574201837182045 -0.0002740000491030514