<?xml version="1.0"?>
<VTKFile type="PolyData" version="0.1" byte_order="LittleEndian" header_type="UInt32">
  <PolyData>
    <Piece NumberOfPoints="2916" NumberOfVerts="0" NumberOfLines="0" NumberOfStrips="0" NumberOfPolys="972">
      <PointData>
      </PointData>
      <CellData>
        <DataArray type="Float64" Name="normal_stress_average" format="ascii" RangeMin="0" RangeMax="0">
          0 0 0 0 0 0
          0 0 0 0 0 0
          0 0 0 0 0 0
          0 0 0 0 0 0
          0 0 0 0 0 0
          0 0 0 0 0 0
          0 0 0 0 0 0
          0 0 0 0 0 0
          0 0 0 0 0 0
          0 0 0 0 0 0
          0 0 0 0 0 0
          0 0 0 0 0 0
          0 0 0 0 0 0
          0 0 0 0 0 0
          0 0 0 0 0 0
          0 0 0 0 0 0
          0 0 0 0 0 0
          0 0 0 0 0 0
          0 0 0 0 0 0
          0 0 0 0 0 0
          0 0 0 0 0 0
          0 0 0 0 0 0
          0 0 0 0 0 0
          0 0 0 0 0 0
          0 0 0 0 0 0
          0 0 0 0 0 0
          0 0 0 0 0 0
          0 0 0 0 0 0
          0 0 0 0 0 0
          0 0 0 0 0 0
          0 0 0 0 0 0
          0 0 0 0 0 0
          0 0 0 0 0 0
          0 0 0 0 0 0
          0 0 0 0 0 0
          0 0 0 0 0 0
          0 0 0 0 0 0
          0 0 0 0 0 0
          0 0 0 0 0 0
          0 0 0 0 0 0
          0 0 0 0 0 0
          0 0 0 0 0 0
          0 0 0 0 0 0
          0 0 0 0 0 0
          0 0 0 0 0 0
          0 0 0 0 0 0
          0 0 0 0 0 0
          0 0 0 0 0 0
          0 0 0 0 0 0
          0 0 0 0 0 0
          0 0 0 0 0 0
          0 0 0 0 0 0
          0 0 0 0 0 0
          0 0 0 0 0 0
          0 0 0 0 0 0
          0 0 0 0 0 0
          0 0 0 0 0 0
          0 0 0 0 0 0
          0 0 0 0 0 0
          0 0 0 0 0 0
          0 0 0 0 0 0
          0 0 0 0 0 0
          0 0 0 0 0 0
          0 0 0 0 0 0
          0 0 0 0 0 0
          0 0 0 0 0 0
          0 0 0 0 0 0
          0 0 0 0 0 0
          0 0 0 0 0 0
          0 0 0 0 0 0
          0 0 0 0 0 0
          0 0 0 0 0 0
          0 0 0 0 0 0
          0 0 0 0 0 0
          0 0 0 0 0 0
          0 0 0 0 0 0
          0 0 0 0 0 0
          0 0 0 0 0 0
          0 0 0 0 0 0
          0 0 0 0 0 0
          0 0 0 0 0 0
          0 0 0 0 0 0
          0 0 0 0 0 0
          0 0 0 0 0 0
          0 0 0 0 0 0
          0 0 0 0 0 0
          0 0 0 0 0 0
          0 0 0 0 0 0
          0 0 0 0 0 0
          0 0 0 0 0 0
          0 0 0 0 0 0
          0 0 0 0 0 0
          0 0 0 0 0 0
          0 0 0 0 0 0
          0 0 0 0 0 0
          0 0 0 0 0 0
          0 0 0 0 0 0
          0 0 0 0 0 0
          0 0 0 0 0 0
          0 0 0 0 0 0
          0 0 0 0 0 0
          0 0 0 0 0 0
          0 0 0 0 0 0
          0 0 0 0 0 0
          0 0 0 0 0 0
          0 0 0 0 0 0
          0 0 0 0 0 0
          0 0 0 0 0 0
          0 0 0 0 0 0
          0 0 0 0 0 0
          0 0 0 0 0 0
          0 0 0 0 0 0
          0 0 0 0 0 0
          0 0 0 0 0 0
          0 0 0 0 0 0
          0 0 0 0 0 0
          0 0 0 0 0 0
          0 0 0 0 0 0
          0 0 0 0 0 0
          0 0 0 0 0 0
          0 0 0 0 0 0
          0 0 0 0 0 0
          0 0 0 0 0 0
          0 0 0 0 0 0
          0 0 0 0 0 0
          0 0 0 0 0 0
          0 0 0 0 0 0
          0 0 0 0 0 0
          0 0 0 0 0 0
          0 0 0 0 0 0
          0 0 0 0 0 0
          0 0 0 0 0 0
          0 0 0 0 0 0
          0 0 0 0 0 0
          0 0 0 0 0 0
          0 0 0 0 0 0
          0 0 0 0 0 0
          0 0 0 0 0 0
          0 0 0 0 0 0
          0 0 0 0 0 0
          0 0 0 0 0 0
          0 0 0 0 0 0
          0 0 0 0 0 0
          0 0 0 0 0 0
          0 0 0 0 0 0
          0 0 0 0 0 0
          0 0 0 0 0 0
          0 0 0 0 0 0
          0 0 0 0 0 0
          0 0 0 0 0 0
          0 0 0 0 0 0
          0 0 0 0 0 0
          0 0 0 0 0 0
          0 0 0 0 0 0
          0 0 0 0 0 0
          0 0 0 0 0 0
          0 0 0 0 0 0
          0 0 0 0 0 0
          0 0 0 0 0 0
          0 0 0 0 0 0
          0 0 0 0 0 0
          0 0 0 0 0 0
        </DataArray>
        <DataArray type="Float64" Name="shear_stress_average" format="ascii" RangeMin="0" RangeMax="0">
          0 0 0 0 0 0
          0 0 0 0 0 0
          0 0 0 0 0 0
          0 0 0 0 0 0
          0 0 0 0 0 0
          0 0 0 0 0 0
          0 0 0 0 0 0
          0 0 0 0 0 0
          0 0 0 0 0 0
          0 0 0 0 0 0
          0 0 0 0 0 0
          0 0 0 0 0 0
          0 0 0 0 0 0
          0 0 0 0 0 0
          0 0 0 0 0 0
          0 0 0 0 0 0
          0 0 0 0 0 0
          0 0 0 0 0 0
          0 0 0 0 0 0
          0 0 0 0 0 0
          0 0 0 0 0 0
          0 0 0 0 0 0
          0 0 0 0 0 0
          0 0 0 0 0 0
          0 0 0 0 0 0
          0 0 0 0 0 0
          0 0 0 0 0 0
          0 0 0 0 0 0
          0 0 0 0 0 0
          0 0 0 0 0 0
          0 0 0 0 0 0
          0 0 0 0 0 0
          0 0 0 0 0 0
          0 0 0 0 0 0
          0 0 0 0 0 0
          0 0 0 0 0 0
          0 0 0 0 0 0
          0 0 0 0 0 0
          0 0 0 0 0 0
          0 0 0 0 0 0
          0 0 0 0 0 0
          0 0 0 0 0 0
          0 0 0 0 0 0
          0 0 0 0 0 0
          0 0 0 0 0 0
          0 0 0 0 0 0
          0 0 0 0 0 0
          0 0 0 0 0 0
          0 0 0 0 0 0
          0 0 0 0 0 0
          0 0 0 0 0 0
          0 0 0 0 0 0
          0 0 0 0 0 0
          0 0 0 0 0 0
          0 0 0 0 0 0
          0 0 0 0 0 0
          0 0 0 0 0 0
          0 0 0 0 0 0
          0 0 0 0 0 0
          0 0 0 0 0 0
          0 0 0 0 0 0
          0 0 0 0 0 0
          0 0 0 0 0 0
          0 0 0 0 0 0
          0 0 0 0 0 0
          0 0 0 0 0 0
          0 0 0 0 0 0
          0 0 0 0 0 0
          0 0 0 0 0 0
          0 0 0 0 0 0
          0 0 0 0 0 0
          0 0 0 0 0 0
          0 0 0 0 0 0
          0 0 0 0 0 0
          0 0 0 0 0 0
          0 0 0 0 0 0
          0 0 0 0 0 0
          0 0 0 0 0 0
          0 0 0 0 0 0
          0 0 0 0 0 0
          0 0 0 0 0 0
          0 0 0 0 0 0
          0 0 0 0 0 0
          0 0 0 0 0 0
          0 0 0 0 0 0
          0 0 0 0 0 0
          0 0 0 0 0 0
          0 0 0 0 0 0
          0 0 0 0 0 0
          0 0 0 0 0 0
          0 0 0 0 0 0
          0 0 0 0 0 0
          0 0 0 0 0 0
          0 0 0 0 0 0
          0 0 0 0 0 0
          0 0 0 0 0 0
          0 0 0 0 0 0
          0 0 0 0 0 0
          0 0 0 0 0 0
          0 0 0 0 0 0
          0 0 0 0 0 0
          0 0 0 0 0 0
          0 0 0 0 0 0
          0 0 0 0 0 0
          0 0 0 0 0 0
          0 0 0 0 0 0
          0 0 0 0 0 0
          0 0 0 0 0 0
          0 0 0 0 0 0
          0 0 0 0 0 0
          0 0 0 0 0 0
          0 0 0 0 0 0
          0 0 0 0 0 0
          0 0 0 0 0 0
          0 0 0 0 0 0
          0 0 0 0 0 0
          0 0 0 0 0 0
          0 0 0 0 0 0
          0 0 0 0 0 0
          0 0 0 0 0 0
          0 0 0 0 0 0
          0 0 0 0 0 0
          0 0 0 0 0 0
          0 0 0 0 0 0
          0 0 0 0 0 0
          0 0 0 0 0 0
          0 0 0 0 0 0
          0 0 0 0 0 0
          0 0 0 0 0 0
          0 0 0 0 0 0
          0 0 0 0 0 0
          0 0 0 0 0 0
          0 0 0 0 0 0
          0 0 0 0 0 0
          0 0 0 0 0 0
          0 0 0 0 0 0
          0 0 0 0 0 0
          0 0 0 0 0 0
          0 0 0 0 0 0
          0 0 0 0 0 0
          0 0 0 0 0 0
          0 0 0 0 0 0
          0 0 0 0 0 0
          0 0 0 0 0 0
          0 0 0 0 0 0
          0 0 0 0 0 0
          0 0 0 0 0 0
          0 0 0 0 0 0
          0 0 0 0 0 0
          0 0 0 0 0 0
          0 0 0 0 0 0
          0 0 0 0 0 0
          0 0 0 0 0 0
          0 0 0 0 0 0
          0 0 0 0 0 0
          0 0 0 0 0 0
          0 0 0 0 0 0
          0 0 0 0 0 0
          0 0 0 0 0 0
          0 0 0 0 0 0
          0 0 0 0 0 0
          0 0 0 0 0 0
        </DataArray>
      </CellData>
      <Points>
        <DataArray type="Float32" Name="Points" NumberOfComponents="3" format="ascii" RangeMin="0.0007628636697823379" RangeMax="0.022688801962100703">
          -0.0002799999783746898 0.0016199474921450019 0.0017251389799639583 -0.0002799999783746898 0.0009955228306353092 -0.00030709130805917084
          -0.0002799999783746898 0.0029345122165977955 -0.0002413764741504565 -0.0002799999783746898 0.003452011849731207 0.0015386991435661912
          -0.0002799999783746898 0.0016199474921450019 0.0017251389799639583 -0.0002799999783746898 0.0029345122165977955 -0.0002413764741504565
          -0.0002799999783746898 0.009639524854719639 0.0013045232044532895 -0.0002800000074785203 0.010909032076597214 0.001978785265237093
          -0.0002800000074785203 0.00974267441779375 0.002959681209176779 -0.0002799999783746898 0.006921015214174986 -0.00003914322951459326
          -0.0002799999783746898 0.008765487931668758 -0.0002413764741504565 -0.0002799999783746898 0.008062099106609821 0.0018722822424024343
          -0.0002799999783746898 0.008062099106609821 0.0018722822424024343 -0.0002799999783746898 0.006262876559048891 0.001536280964501202
          -0.0002799999783746898 0.006921015214174986 -0.00003914322951459326 -0.0002800000074785203 0.011999841779470444 0.0029393460135906935
          -0.0002800000074785203 0.010909032076597214 0.001978785265237093 -0.0002799999783746898 0.012179708108305931 0.0010585507843643427
          -0.0002799999783746898 0.005849999841302633 -0.001924634096212685 -0.0002799999783746898 0.004889082629233599 0.00020752901036757976
          -0.0002799999783746898 0.003906341269612312 -0.001924634096212685 -0.0002800000074785203 0.010899772867560387 0.003906341269612312
          -0.0002800000074785203 0.010909032076597214 0.001978785265237093 -0.0002800000074785203 0.011999841779470444 0.0029393460135906935
          -0.0002800000074785203 0.00974267441779375 0.002959681209176779 -0.0002800000074785203 0.010909032076597214 0.001978785265237093
          -0.0002800000074785203 0.010899772867560387 0.003906341269612312 -0.0002799999783746898 0.01071833074092865 -0.000046756216761423275
          -0.0002799999783746898 0.012201777659356594 -0.0005017773364670575 -0.0002799999783746898 0.012179708108305931 0.0010585507843643427
          -0.0002799999783746898 0.006921015214174986 -0.00003914322951459326 -0.0002799999783746898 0.004889082629233599 0.00020752901036757976
          -0.0002799999783746898 0.005849999841302633 -0.001924634096212685 -0.0002799999783746898 0.003906341269612312 -0.001924634096212685
          -0.0002799999783746898 0.004889082629233599 0.00020752901036757976 -0.0002799999783746898 0.0029345122165977955 -0.0002413764741504565
          -0.0002799999783746898 -0.00027879842673428357 0.0009990896796807647 -0.0002799999783746898 -0.0005017773364670575 -0.0005017773364670575
          -0.0002799999783746898 0.0009955228306353092 -0.00030709130805917084 -0.0002800000074785203 0.00974267441779375 0.002959681209176779
          -0.0002800000074785203 0.010899772867560387 0.003906341269612312 -0.0002800000074785203 0.009858169592916965 0.0048781707882881165
          -0.0002800000074785203 0.011941376142203808 0.0048781707882881165 -0.0002800000074785203 0.010899772867560387 0.003906341269612312
          -0.0002800000074785203 0.011999841779470444 0.0029393460135906935 -0.0002800000074785203 0.010899772867560387 0.005849999841302633
          -0.0002800000074785203 0.010899772867560387 0.003906341269612312 -0.0002800000074785203 0.011941376142203808 0.0048781707882881165
          -0.0002799999783746898 -0.00027879842673428357 0.0009990896796807647 -0.0002799999783746898 0.0009955228306353092 -0.00030709130805917084
          -0.0002799999783746898 0.0016199474921450019 0.0017251389799639583 -0.0002799999783746898 0.006262876559048891 0.001536280964501202
          -0.0002799999783746898 0.004889082629233599 0.00020752901036757976 -0.0002799999783746898 0.006921015214174986 -0.00003914322951459326
          -0.0002800000074785203 0.011941376142203808 0.006821829359978437 -0.0002800000074785203 0.010899772867560387 0.005849999841302633
          -0.0002800000074785203 0.011941376142203808 0.0048781707882881165 -0.0002800000074785203 0.009858169592916965 0.0048781707882881165
          -0.0002800000074785203 0.010899772867560387 0.003906341269612312 -0.0002800000074785203 0.010899772867560387 0.005849999841302633
          -0.0002799999783746898 0.006262876559048891 0.001536280964501202 -0.0002800000074785203 0.004828508477658033 0.0022858160082250834
          -0.0002799999783746898 0.004889082629233599 0.00020752901036757976 -0.0002799999783746898 0.004889082629233599 0.00020752901036757976
          -0.0002800000074785203 0.004828508477658033 0.0022858160082250834 -0.0002799999783746898 0.003452011849731207 0.0015386991435661912
          -0.0002799999783746898 0.008765487931668758 -0.0002413764741504565 -0.0002799999783746898 0.009639524854719639 0.0013045232044532895
          -0.0002799999783746898 0.008062099106609821 0.0018722822424024343 -0.0002799999783746898 0.011680975556373596 -0.001924634096212685
          -0.0002799999783746898 0.012201777659356594 -0.0005017773364670575 -0.0002799999783746898 0.01071833074092865 -0.000046756216761423275
          -0.0002799999783746898 -0.001924634096212685 0.000019024389985133894 -0.0002799999783746898 -0.0005017773364670575 -0.0005017773364670575
          -0.0002799999783746898 -0.00027879842673428357 0.0009990896796807647 -0.0002799999783746898 0.012179708108305931 0.0010585507843643427
          -0.0002799999783746898 0.012201777659356594 -0.0005017773364670575 -0.0002799999783746898 0.013624634593725204 0.000019024389985133894
          -0.0002799999783746898 0.0009955228306353092 -0.00030709130805917084 -0.0002799999783746898 -0.0005017773364670575 -0.0005017773364670575
          -0.0002799999783746898 0.000019024389985133894 -0.001924634096212685 -0.0002799999783746898 0.003452011849731207 0.0015386991435661912
          -0.0002800000074785203 0.003056159010156989 0.0031623044051229954 -0.0002799999783746898 0.0016199474921450019 0.0017251389799639583
          -0.0002799999783746898 0.004889082629233599 0.00020752901036757976 -0.0002799999783746898 0.003452011849731207 0.0015386991435661912
          -0.0002799999783746898 0.0029345122165977955 -0.0002413764741504565 -0.0002799999783746898 0.003452011849731207 0.0015386991435661912
          -0.0002800000074785203 0.004828508477658033 0.0022858160082250834 -0.0002800000074785203 0.003056159010156989 0.0031623044051229954
          -0.0002800000074785203 0.00652097025886178 0.004963868297636509 -0.0002800000074785203 0.006507358513772488 0.0031780125573277473
          -0.0002800000074785203 0.008211595937609673 0.003976903390139341 -0.0002800000074785203 0.0014161806320771575 0.003949284553527832
          -0.0002800000074785203 0.003056159010156989 0.0031623044051229954 -0.0002800000074785203 0.0030955341644585133 0.004929327871650457
          -0.0002800000074785203 0.006507358513772488 0.0031780125573277473 -0.0002800000074785203 0.004828508477658033 0.0022858160082250834
          -0.0002799999783746898 0.006262876559048891 0.001536280964501202 -0.0002799999783746898 0.01071833074092865 -0.000046756216761423275
          -0.0002799999783746898 0.009639524854719639 0.0013045232044532895 -0.0002799999783746898 0.008765487931668758 -0.0002413764741504565
          -0.0002800000074785203 -0.001924634096212685 0.001962682930752635 -0.0002800000074785203 -0.0002476134686730802 0.002935884753242135
          -0.0002800000074785203 -0.001924634096212685 0.003906341269612312 -0.0002799999783746898 0.009737317450344563 -0.001924634096212685
          -0.0002799999783746898 0.008765487931668758 -0.0002413764741504565 -0.0002799999783746898 0.007793658412992954 -0.001924634096212685
          -0.0002799999783746898 0.008062099106609821 0.0018722822424024343 -0.0002799999783746898 0.009639524854719639 0.0013045232044532895
          -0.0002800000074785203 0.00974267441779375 0.002959681209176779 -0.0002800000074785203 -0.0002476134686730802 0.002935884753242135
          -0.0002799999783746898 0.0016199474921450019 0.0017251389799639583 -0.0002800000074785203 0.0014161806320771575 0.003949284553527832
          -0.0002800000074785203 -0.0002476134686730802 0.002935884753242135 -0.0002800000074785203 0.0014161806320771575 0.003949284553527832
          -0.0002800000074785203 -0.0002413764741504565 0.0048781707882881165 -0.0002800000074785203 0.013624634593725204 0.005849999841302633
          -0.0002800000074785203 0.011941376142203808 0.0048781707882881165 -0.0002800000074785203 0.013624634593725204 0.003906341269612312
          -0.0002800000074785203 0.011941376142203808 0.006821829359978437 -0.0002800000074785203 0.011941376142203808 0.0048781707882881165
          -0.0002800000074785203 0.013624634593725204 0.005849999841302633 -0.0002800000074785203 0.003056159010156989 0.0031623044051229954
          -0.0002800000074785203 0.004828508477658033 0.0022858160082250834 -0.0002800000074785203 0.004803562071174383 0.004092070274055004
          -0.0002799999783746898 0.013624634593725204 0.000019024389985133894 -0.0002799999783746898 0.012201777659356594 -0.0005017773364670575
          -0.0002799999783746898 0.013624634593725204 -0.001924634096212685 -0.0002800000074785203 0.0014161806320771575 0.003949284553527832
          -0.0002800000074785203 0.0014379196800291538 0.005857714917510748 -0.0002800000074785203 -0.0002413764741504565 0.0048781707882881165
          -0.0002799999783746898 0.000019024389985133894 -0.001924634096212685 -0.0002799999783746898 -0.0005017773364670575 -0.0005017773364670575
          -0.0002799999783746898 -0.001924634096212685 -0.001924634096212685 -0.0002799999783746898 -0.00027879842673428357 0.0009990896796807647
          -0.0002799999783746898 0.0016199474921450019 0.0017251389799639583 -0.0002800000074785203 -0.0002476134686730802 0.002935884753242135
          -0.0002799999783746898 0.013624634593725204 -0.001924634096212685 -0.0002799999783746898 0.012201777659356594 -0.0005017773364670575
          -0.0002799999783746898 0.011680975556373596 -0.001924634096212685 -0.0002800000074785203 0.0030955341644585133 0.004929327871650457
          -0.0002800000074785203 0.004803562071174383 0.004092070274055004 -0.0002800000074785203 0.00480391550809145 0.005857659503817558
          -0.0002799999783746898 -0.001924634096212685 -0.001924634096212685 -0.0002799999783746898 -0.0005017773364670575 -0.0005017773364670575
          -0.0002799999783746898 -0.001924634096212685 0.000019024389985133894 -0.0002800000074785203 0.008211595937609673 0.003976903390139341
          -0.0002800000074785203 0.006507358513772488 0.0031780125573277473 -0.0002799999783746898 0.008062099106609821 0.0018722822424024343
          -0.0002800000074785203 0.004803562071174383 0.004092070274055004 -0.0002800000074785203 0.006507358513772488 0.0031780125573277473
          -0.0002800000074785203 0.00652097025886178 0.004963868297636509 -0.0002800000074785203 -0.001924634096212685 0.003906341269612312
          -0.0002800000074785203 -0.0002476134686730802 0.002935884753242135 -0.0002800000074785203 -0.0002413764741504565 0.0048781707882881165
          -0.0002799999783746898 -0.00027879842673428357 0.0009990896796807647 -0.0002800000074785203 -0.0002476134686730802 0.002935884753242135
          -0.0002800000074785203 -0.001924634096212685 0.001962682930752635 -0.0002799999783746898 0.007793658412992954 -0.001924634096212685
          -0.0002799999783746898 0.008765487931668758 -0.0002413764741504565 -0.0002799999783746898 0.006921015214174986 -0.00003914322951459326
          -0.0002799999783746898 0.01071833074092865 -0.000046756216761423275 -0.0002799999783746898 0.008765487931668758 -0.0002413764741504565
          -0.0002799999783746898 0.009737317450344563 -0.001924634096212685 -0.0002800000074785203 0.013624634593725204 0.003906341269612312
          -0.0002800000074785203 0.011941376142203808 0.0048781707882881165 -0.0002800000074785203 0.011999841779470444 0.0029393460135906935
          -0.0002800000074785203 0.0030955341644585133 0.004929327871650457 -0.0002800000074785203 0.003056159010156989 0.0031623044051229954
          -0.0002800000074785203 0.004803562071174383 0.004092070274055004 -0.0002799999783746898 0.0016199474921450019 0.0017251389799639583
          -0.0002800000074785203 0.003056159010156989 0.0031623044051229954 -0.0002800000074785203 0.0014161806320771575 0.003949284553527832
          -0.0002800000074785203 0.004803562071174383 0.004092070274055004 -0.0002800000074785203 0.004828508477658033 0.0022858160082250834
          -0.0002800000074785203 0.006507358513772488 0.0031780125573277473 -0.0002800000074785203 0.011999841779470444 0.0029393460135906935
          -0.0002799999783746898 0.012179708108305931 0.0010585507843643427 -0.0002800000074785203 0.013624634593725204 0.001962682930752635
          -0.0002800000074785203 0.004803562071174383 0.004092070274055004 -0.0002800000074785203 0.00652097025886178 0.004963868297636509
          -0.0002800000074785203 0.00480391550809145 0.005857659503817558 -0.0002800000074785203 0.00652097025886178 0.004963868297636509
          -0.0002800000074785203 0.008211595937609673 0.003976903390139341 -0.0002800000074785203 0.008180487900972366 0.00586687633767724
          -0.0002800000074785203 0.008211595937609673 0.003976903390139341 -0.0002800000074785203 0.009858169592916965 0.0048781707882881165
          -0.0002800000074785203 0.008180487900972366 0.00586687633767724 -0.0002799999783746898 0.0029345122165977955 -0.0002413764741504565
          -0.0002799999783746898 0.0009955228306353092 -0.00030709130805917084 -0.0002799999783746898 0.001962682930752635 -0.001924634096212685
          -0.0002800000074785203 0.013624634593725204 0.001962682930752635 -0.0002799999783746898 0.012179708108305931 0.0010585507843643427
          -0.0002799999783746898 0.013624634593725204 0.000019024389985133894 -0.0002800000074785203 -0.001924634096212685 0.003906341269612312
          -0.0002800000074785203 -0.0002413764741504565 0.0048781707882881165 -0.0002800000074785203 -0.001924634096212685 0.005849999841302633
          -0.0002799999783746898 -0.001924634096212685 0.000019024389985133894 -0.0002799999783746898 -0.00027879842673428357 0.0009990896796807647
          -0.0002800000074785203 -0.001924634096212685 0.001962682930752635 -0.0002799999783746898 0.007793658412992954 -0.001924634096212685
          -0.0002799999783746898 0.006921015214174986 -0.00003914322951459326 -0.0002799999783746898 0.005849999841302633 -0.001924634096212685
          -0.0002799999783746898 0.011680975556373596 -0.001924634096212685 -0.0002799999783746898 0.01071833074092865 -0.000046756216761423275
          -0.0002799999783746898 0.009737317450344563 -0.001924634096212685 -0.0002799999783746898 0.001962682930752635 -0.001924634096212685
          -0.0002799999783746898 0.0009955228306353092 -0.00030709130805917084 -0.0002799999783746898 0.000019024389985133894 -0.001924634096212685
          -0.0002799999783746898 0.01071833074092865 -0.000046756216761423275 -0.0002800000074785203 0.010909032076597214 0.001978785265237093
          -0.0002799999783746898 0.009639524854719639 0.0013045232044532895 -0.0002799999783746898 0.012179708108305931 0.0010585507843643427
          -0.0002800000074785203 0.010909032076597214 0.001978785265237093 -0.0002799999783746898 0.01071833074092865 -0.000046756216761423275
          -0.0002799999783746898 0.008062099106609821 0.0018722822424024343 -0.0002800000074785203 0.006507358513772488 0.0031780125573277473
          -0.0002799999783746898 0.006262876559048891 0.001536280964501202 -0.0002800000074785203 0.008211595937609673 0.003976903390139341
          -0.0002799999783746898 0.008062099106609821 0.0018722822424024343 -0.0002800000074785203 0.00974267441779375 0.002959681209176779
          -0.0002800000074785203 0.008211595937609673 0.003976903390139341 -0.0002800000074785203 0.00974267441779375 0.002959681209176779
          -0.0002800000074785203 0.009858169592916965 0.0048781707882881165 -0.0002800000074785203 0.0014161806320771575 0.003949284553527832
          -0.0002800000074785203 0.0030955341644585133 0.004929327871650457 -0.0002800000074785203 0.0014379196800291538 0.005857714917510748
          -0.0002800000074785203 0.013624634593725204 0.003906341269612312 -0.0002800000074785203 0.011999841779470444 0.0029393460135906935
          -0.0002800000074785203 0.013624634593725204 0.001962682930752635 -0.0002799999783746898 0.003906341269612312 -0.001924634096212685
          -0.0002799999783746898 0.0029345122165977955 -0.0002413764741504565 -0.0002799999783746898 0.001962682930752635 -0.001924634096212685
          -0.0002800000074785203 0.009774185717105865 0.008752773515880108 -0.0002800000074785203 0.010898741893470287 0.00957932323217392
          -0.0002800000074785203 0.009736176580190659 0.010497848503291607 -0.0002800000074785203 0.001237186137586832 0.011922219768166542
          -0.0002800000074785203 -0.0005017773364670575 0.012201777659356594 -0.0002800000074785203 -0.0003257508797105402 0.010652650147676468
          -0.0002800000074785203 0.008481340482831001 0.011785736307501793 -0.0002800000074785203 0.00654967874288559 0.010708041489124298
          -0.0002800000074785203 0.008174912072718143 0.009737317450344563 -0.0002800000074785203 0.011941376142203808 0.010709146037697792
          -0.0002800000074785203 0.012201777659356594 0.012201777659356594 -0.0002800000074785203 0.0106179965659976 0.012016594409942627
          -0.0002800000074785203 0.011941376142203808 0.010709146037697792 -0.0002800000074785203 0.010898741893470287 0.00957932323217392
          -0.0002800000074785203 0.011941376142203808 0.008765487931668758 -0.0002800000074785203 0.008481340482831001 0.011785736307501793
          -0.0002800000074785203 0.006821829359978437 0.012310165911912918 -0.0002800000074785203 0.00654967874288559 0.010708041489124298
          -0.0002800000074785203 0.011941376142203808 0.008765487931668758 -0.0002800000074785203 0.010898741893470287 0.00957932323217392
          -0.0002800000074785203 0.010899772867560387 0.007793658412992954 -0.0002800000074785203 0.001237186137586832 0.011922219768166542
          -0.0002800000074785203 0.0013955465983599424 0.009961294010281563 -0.0002800000074785203 0.0031011078972369432 0.010858835652470589
          -0.0002800000074785203 -0.00026030660956166685 0.008806600235402584 -0.0002800000074785203 0.0014307948295027018 0.00782565027475357
          -0.0002800000074785203 0.0013955465983599424 0.009961294010281563 -0.0002800000074785203 0.0031011078972369432 0.010858835652470589
          -0.0002800000074785203 0.0029345122165977955 0.012422091327607632 -0.0002800000074785203 0.001237186137586832 0.011922219768166542
          -0.0002800000074785203 0.009858169592916965 0.006821829359978437 -0.0002800000074785203 0.010899772867560387 0.005849999841302633
          -0.0002800000074785203 0.010899772867560387 0.007793658412992954 -0.0002800000074785203 0.009858169592916965 0.0048781707882881165
          -0.0002800000074785203 0.010899772867560387 0.005849999841302633 -0.0002800000074785203 0.009858169592916965 0.006821829359978437
          -0.0002800000074785203 0.004853371996432543 0.011902942322194576 -0.0002800000074785203 0.0031011078972369432 0.010858835652470589
          -0.0002800000074785203 0.004808396566659212 0.009737317450344563 -0.0002800000074785203 0.004853371996432543 0.011902942322194576
          -0.0002800000074785203 0.004808396566659212 0.009737317450344563 -0.0002800000074785203 0.00654967874288559 0.010708041489124298
          -0.0002800000074785203 0.0031020455062389374 0.006860747467726469 -0.0002800000074785203 0.004786801058799028 0.00783304963260889
          -0.0002800000074785203 0.0030182136688381433 0.008936778642237186 -0.0002800000074785203 0.0013955465983599424 0.009961294010281563
          -0.0002800000074785203 0.0014307948295027018 0.00782565027475357 -0.0002800000074785203 0.0030182136688381433 0.008936778642237186
          -0.0002800000074785203 0.010899772867560387 0.007793658412992954 -0.0002800000074785203 0.010899772867560387 0.005849999841302633
          -0.0002800000074785203 0.011941376142203808 0.006821829359978437 -0.0002800000074785203 0.009858169592916965 0.006821829359978437
          -0.0002800000074785203 0.010899772867560387 0.007793658412992954 -0.0002800000074785203 0.009774185717105865 0.008752773515880108
          -0.0002800000074785203 0.0030182136688381433 0.008936778642237186 -0.0002800000074785203 0.004786801058799028 0.00783304963260889
          -0.0002800000074785203 0.004808396566659212 0.009737317450344563 -0.0002800000074785203 0.0030182136688381433 0.008936778642237186
          -0.0002800000074785203 0.0014307948295027018 0.00782565027475357 -0.0002800000074785203 0.0031020455062389374 0.006860747467726469
          -0.0002800000074785203 0.011941376142203808 0.008765487931668758 -0.0002800000074785203 0.010899772867560387 0.007793658412992954
          -0.0002800000074785203 0.011941376142203808 0.006821829359978437 -0.0002800000074785203 0.010899772867560387 0.007793658412992954
          -0.0002800000074785203 0.010898741893470287 0.00957932323217392 -0.0002800000074785203 0.009774185717105865 0.008752773515880108
          -0.0002800000074785203 -0.0003257508797105402 0.010652650147676468 -0.0002800000074785203 -0.0005017773364670575 0.012201777659356594
          -0.0002800000074785203 -0.001924634096212685 0.011680975556373596 -0.0002800000074785203 0.008174912072718143 0.009737317450344563
          -0.0002800000074785203 0.009736176580190659 0.010497848503291607 -0.0002800000074785203 0.008481340482831001 0.011785736307501793
          -0.0002800000074785203 0.0031011078972369432 0.010858835652470589 -0.0002800000074785203 0.0030182136688381433 0.008936778642237186
          -0.0002800000074785203 0.004808396566659212 0.009737317450344563 -0.0002800000074785203 0.0106179965659976 0.012016594409942627