LIGGGHTS data file

 15625 atoms

 2 atom types

 -0.000196125 0.00970018 xlo xhi
 -0.000196191 0.0097002 ylo yhi
 -0.000196112 0.00970003 zlo zhi

Atoms

1 1 0.000253334 2650.0 -6.92723e-06 -1.28253e-05 1.71115e-06
2 1 0.00012 2650.0 0.000384111 -1.48085e-05 1.10096e-05
3 1 0.00012 2650.0 0.000794443 1.54162e-05 -2.17463e-06
4 1 0.00012 2650.0 0.00118619 1.30977e-05 6.64012e-06
5 1 0.0001466666 2650.0 0.0015989 -3.47689e-06 1.35246e-05
6 1 0.00028 2650.0 0.00196986 4.83492e-06 1.29559e-06
7 1 0.000226666 2650.0 0.00237815 4.50919e-06 2.39572e-06
8 1 0.0001466666 2650.0 0.00276374 -7.92622e-06 1.2871e-05
9 1 0.0001466666 2650.0 0.0031564 9.13915e-06 -6.66761e-06
10 1 0.00012 2650.0 0.00357309 1.50794e-06 7.10098e-06
11 1 0.000226666 2650.0 0.00394459 4.56233e-06 -1.17846e-05
12 1 0.0001466666 2650.0 0.00435358 1.36042e-05 -1.60697e-06
13 1 0.0001466666 2650.0 0.00476517 -7.76102e-06 2.89451e-06
14 1 0.00012 2650.0 0.00516366 -1.49047e-05 1.38513e-05
15 1 0.0001733334 2650.0 0.00554871 -6.39685e-06 -8.69142e-06
16 1 0.0001733334 2650.0 0.00595491 -9.60718e-06 1.37109e-05
17 1 0.0001733334 2650.0 0.00634616 -1.06695e-05 1.09779e-05
18 1 0.000226666 2650.0 0.00671891 5.45449e-06 1.39803e-05
19 1 0.0001466666 2650.0 0.00713094 4.14184e-06 -1.56636e-05
20 1 0.00012 2650.0 0.00751634 -1.86899e-06 1.58279e-05
21 1 0.0001466666 2650.0 0.00793557 -1.55749e-05 -6.92645e-06
22 1 0.0001733334 2650.0 0.00831638 -1.21933e-06 1.59071e-05
23 1 0.0001733334 2650.0 0.00869703 1.5044e-05 -5.1086e-06
24 1 0.0002 2650.0 0.00910783 1.97509e-06 -1.46009e-05
25 1 0.00012 2650.0 0.0095038 1.26721e-05 1.39794e-05
26 1 0.00012 2650.0 -1.30789e-05 0.000380386 1.06096e-05
27 1 0.000253334 2650.0 0.000382356 0.000410454 -3.38743e-06
28 1 0.0002 2650.0 0.000786339 0.000409464 1.31197e-05
29 1 0.0001466666 2650.0 0.00117624 0.000403552 -1.26606e-05
30 1 0.00012 2650.0 0.00160019 0.000393466 -9.44356e-06
31 1 0.000253334 2650.0 0.00198969 0.000411347 3.77019e-06
32 1 0.0001733334 2650.0 0.00236712 0.000388347 1.06178e-05
33 1 0.00012 2650.0 0.00276559 0.000404488 -3.03819e-06
34 1 0.0001733334 2650.0 0.00316753 0.000391805 -5.89898e-06
35 1 0.000253334 2650.0 0.0035638 0.000404042 -1.38138e-05
36 1 0.0001733334 2650.0 0.00396921 0.000411013 -8.76496e-06
37 1 0.0001733334 2650.0 0.00436611 0.000408302 7.91374e-06
38 1 0.000306666 2650.0 0.00475632 0.000409216 1.44519e-05
39 1 0.0001466666 2650.0 0.00513847 0.000391811 -1.93676e-06
40 1 0.0001466666 2650.0 0.00555491 0.000402916 -8.08292e-06
41 1 0.000226666 2650.0 0.00594356 0.000400405 -1.81789e-06
42 1 0.00012 2650.0 0.00633589 0.000405211 9.77257e-06
43 1 0.000226666 2650.0 0.00674397 0.000395107 -2.71993e-06
44 1 0.00012 2650.0 0.00713048 0.000399975 5.95686e-06
45 1 0.000226666 2650.0 0.0075249 0.00040787 -1.59629e-05
46 1 0.0001466666 2650.0 0.00793576 0.000398528 1.56694e-05
47 1 0.000253334 2650.0 0.00832518 0.000404803 1.13969e-05
48 1 0.000226666 2650.0 0.00871105 0.000392948 -1.24265e-05
49 1 0.000333334 2650.0 0.00910605 0.000383183 4.13338e-06
50 1 0.0002 2650.0 0.00950804 0.0003855 7.70273e-06
51 1 0.0001466666 2650.0 -1.0571e-05 0.000807597 1.54577e-05
52 1 0.00028 2650.0 0.000411053 0.000781679 1.25631e-05
53 1 0.00012 2650.0 0.000788726 0.000805923 1.19897e-05
54 1 0.0002 2650.0 0.00120367 0.000781703 -6.57246e-06
55 1 0.0001466666 2650.0 0.00157225 0.000797227 -1.57001e-05
56 1 0.00012 2650.0 0.00197423 0.000783593 5.70501e-06
57 1 0.00012 2650.0 0.00238851 0.000804664 1.14994e-05
58 1 0.000333334 2650.0 0.00277569 0.00079547 -4.62373e-06
59 1 0.0001733334 2650.0 0.00315211 0.000776379 -1.21478e-05
60 1 0.0001733334 2650.0 0.00354856 0.000800384 3.63338e-06
61 1 0.0002 2650.0 0.0039522 0.00080072 6.36707e-06
62 1 0.0001466666 2650.0 0.00435019 0.000798466 5.82322e-06
63 1 0.000226666 2650.0 0.00474247 0.000782161 8.2979e-06
64 1 0.0001733334 2650.0 0.00516125 0.000778775 -1.14361e-06
65 1 0.0002 2650.0 0.00553659 0.000792442 1.35908e-05
66 1 0.000333334 2650.0 0.0059404 0.00078688 2.79557e-06
67 1 0.000226666 2650.0 0.00634121 0.00079199 1.02732e-06
68 1 0.00028 2650.0 0.00672892 0.00078504 -8.23517e-06
69 1 0.000253334 2650.0 0.0071323 0.000793089 -3.38644e-06
70 1 0.0001466666 2650.0 0.00753483 0.000785254 1.28502e-05
71 1 0.0002 2650.0 0.00791418 0.000790557 -1.1363e-05
72 1 0.000226666 2650.0 0.00830378 0.000784836 -1.17736e-05
73 1 0.000306666 2650.0 0.00870031 0.000794585 -1.01939e-05
74 1 0.000253334 2650.0 0.00911054 0.000787136 -8.94275e-06
75 1 0.00036 2650.0 0.00950682 0.000805667 1.58269e-05
76 1 0.000253334 2650.0 -9.22719e-07 0.00119946 8.45341e-06
77 1 0.0001466666 2650.0 0.000398471 0.00118941 4.44376e-06
78 1 0.0002 2650.0 0.000796294 0.0011729 -5.2338e-06
79 1 0.000253334 2650.0 0.00118951 0.00119298 -4.4114e-06
80 1 0.0002 2650.0 0.00157284 0.00119116 -9.25303e-06
81 1 0.000226666 2650.0 0.00198432 0.00119874 -9.75202e-06
82 1 0.0001733334 2650.0 0.00238547 0.0011738 -1.69909e-06
83 1 0.000226666 2650.0 0.00275976 0.0011908 8.38524e-06
84 1 0.00012 2650.0 0.00315866 0.00118803 -1.66975e-06
85 1 0.0001733334 2650.0 0.00355887 0.00117671 -3.82987e-06
86 1 0.000226666 2650.0 0.0039702 0.00119483 8.85427e-06
87 1 0.0001466666 2650.0 0.00435644 0.00118433 -1.29757e-05
88 1 0.00028 2650.0 0.00475365 0.00120016 -7.67969e-06
89 1 0.0001733334 2650.0 0.0051571 0.00120218 -1.27099e-05
90 1 0.0001733334 2650.0 0.00554214 0.00118837 5.73272e-07
91 1 0.000226666 2650.0 0.00595218 0.00118782 1.47579e-05
92 1 0.0001466666 2650.0 0.00635017 0.00117741 -1.43902e-05
93 1 0.000253334 2650.0 0.00674111 0.00120293 -9.57718e-06
94 1 0.00012 2650.0 0.00712754 0.00117421 -8.3666e-06
95 1 0.000226666 2650.0 0.00752248 0.00117479 4.25017e-06
96 1 0.00012 2650.0 0.0079106 0.0011881 1.44152e-05
97 1 0.000226666 2650.0 0.00830454 0.00118717 3.18969e-07
98 1 0.0001466666 2650.0 0.0087269 0.00120196 -2.87232e-06
99 1 0.00012 2650.0 0.00910886 0.0011925 -1.12855e-05
100 1 0.00012 2650.0 0.00949895 0.00118769 -8.1613e-07
101 1 0.0002 2650.0 -1.1489e-05 0.00159274 1.36727e-05
102 1 0.0002 2650.0 0.000411804 0.00159468 -8.5184e-06
103 1 0.0002 2650.0 0.000798792 0.00158392 -2.81276e-07
104 1 0.0001733334 2650.0 0.001191 0.00158843 -8.11337e-07
105 1 0.0001466666 2650.0 0.00158827 0.00158177 -1.26509e-05
106 1 0.000226666 2650.0 0.00196524 0.00157623 8.21277e-06
107 1 0.0001466666 2650.0 0.00238407 0.00159641 -1.57162e-05
108 1 0.000306666 2650.0 0.00278698 0.00159404 4.18623e-06
109 1 0.0001733334 2650.0 0.00315312 0.00157525 6.31275e-06
110 1 0.000306666 2650.0 0.00355241 0.00158899 -6.54869e-06
111 1 0.0001466666 2650.0 0.00395891 0.001574 -1.21718e-05
112 1 0.0002 2650.0 0.00435743 0.00159151 1.08208e-05
113 1 0.0001733334 2650.0 0.00475674 0.00159729 1.35239e-05
114 1 0.00028 2650.0 0.00515806 0.00158393 -1.21972e-05
115 1 0.000333334 2650.0 0.00553969 0.00159178 5.39288e-06
116 1 0.000253334 2650.0 0.00595541 0.00159219 4.09747e-06
117 1 0.000333334 2650.0 0.00631984 0.00159633 6.21969e-06
118 1 0.0001466666 2650.0 0.00674395 0.00157807 7.56105e-06
119 1 0.0001733334 2650.0 0.00713376 0.00157801 9.2093e-06
120 1 0.0001733334 2650.0 0.00752989 0.0015745 3.81208e-06
121 1 0.00012 2650.0 0.00793484 0.00157373 -9.07161e-06
122 1 0.000226666 2650.0 0.00832379 0.00156856 2.86998e-06
123 1 0.000253334 2650.0 0.00870416 0.00159986 4.9714e-06
124 1 0.0001733334 2650.0 0.00910267 0.00158782 2.33615e-06
125 1 0.0001733334 2650.0 0.00949892 0.00156804 1.03174e-05
126 1 0.000253334 2650.0 -4.18294e-07 0.00198053 -1.25093e-05
127 1 0.0001466666 2650.0 0.000396413 0.00199082 1.56716e-07
128 1 0.0001733334 2650.0 0.000801532 0.00197178 -1.35626e-05
129 1 0.0001733334 2650.0 0.00117619 0.00198663 1.33155e-05
130 1 0.0001466666 2650.0 0.00159073 0.00196853 6.27554e-06
131 1 0.00028 2650.0 0.00199103 0.00199212 1.13124e-05
132 1 0.0001466666 2650.0 0.00237976 0.00196594 -1.02198e-05
133 1 0.0001733334 2650.0 0.00276058 0.00198967 -8.35178e-06
134 1 0.0002 2650.0 0.00315636 0.00199381 1.21107e-06
135 1 0.0002 2650.0 0.00357123 0.00198262 5.54403e-06
136 1 0.0001733334 2650.0 0.00395609 0.00199123 1.34339e-05
137 1 0.0001466666 2650.0 0.00434442 0.00197078 -2.76563e-06
138 1 0.000253334 2650.0 0.00476403 0.00198254 2.95387e-06
139 1 0.0002 2650.0 0.00515691 0.00197576 -1.21179e-05
140 1 0.000333334 2650.0 0.00554517 0.00197978 -4.36717e-06
141 1 0.00028 2650.0 0.00592702 0.0019762 3.28654e-07
142 1 0.0002 2650.0 0.00635169 0.00198539 -6.71413e-06
143 1 0.0001466666 2650.0 0.0067368 0.00199066 8.19786e-06
144 1 0.0001733334 2650.0 0.00711219 0.0019679 -8.52415e-06
145 1 0.000306666 2650.0 0.00753137 0.00199608 -2.67702e-06
146 1 0.000226666 2650.0 0.007931 0.00198559 -4.49076e-06
147 1 0.0001466666 2650.0 0.00833176 0.00197073 -3.12523e-06
148 1 0.0001733334 2650.0 0.00870671 0.00198149 1.41313e-05
149 1 0.000306666 2650.0 0.00911994 0.00198644 -7.74934e-06
150 1 0.0002 2650.0 0.00950883 0.0019769 -4.83338e-06
151 1 0.000226666 2650.0 -7.82771e-06 0.00239214 1.38206e-05
152 1 0.00012 2650.0 0.000402544 0.00239022 -2.3292e-06
153 1 0.0001733334 2650.0 0.000784392 0.00238846 -7.0575e-06
154 1 0.0001733334 2650.0 0.00118904 0.00237331 5.69665e-06
155 1 0.0001733334 2650.0 0.00158558 0.00238508 -1.16328e-05
156 1 0.0001733334 2650.0 0.00196929 0.0023772 -3.3959e-06
157 1 0.0001466666 2650.0 0.00238994 0.00238801 7.6545e-06
158 1 0.0001466666 2650.0 0.00276083 0.00236923 2.53231e-06
159 1 0.0001733334 2650.0 0.00315489 0.00239026 -6.09656e-06
160 1 0.0001466666 2650.0 0.00354791 0.00237218 -4.77482e-06
161 1 0.0001466666 2650.0 0.0039644 0.00236936 -1.73179e-06
162 1 0.0001466666 2650.0 0.00434494 0.00238654 -3.31718e-07
163 1 0.0001466666 2650.0 0.00474963 0.00236343 -1.39652e-05
164 1 0.0001466666 2650.0 0.00514078 0.00238943 -1.29495e-06
165 1 0.0002 2650.0 0.00555265 0.00236331 -5.01968e-06
166 1 0.000226666 2650.0 0.00594385 0.00237408 -1.08235e-05
167 1 0.0001466666 2650.0 0.00635126 0.0023792 -1.05447e-06
168 1 0.0001733334 2650.0 0.00673227 0.00237886 3.41502e-07
169 1 0.00012 2650.0 0.00713283 0.00237292 -9.50355e-06
170 1 0.00028 2650.0 0.00752981 0.00239057 -5.48633e-06
171 1 0.0002 2650.0 0.00792157 0.00238621 1.48942e-06
172 1 0.0001466666 2650.0 0.00830343 0.00239209 -1.20528e-05
173 1 0.0001733334 2650.0 0.00870535 0.00238565 1.33933e-06
174 1 0.000226666 2650.0 0.00910007 0.00238031 -1.38949e-05
175 1 0.00012 2650.0 0.00951168 0.00237469 -1.14309e-05
176 1 0.00036 2650.0 1.28167e-05 0.00278698 1.46974e-05
177 1 0.0002 2650.0 0.000396866 0.00277441 -4.39726e-06
178 1 0.0001466666 2650.0 0.000791735 0.00276314 -1.55481e-05
179 1 0.00012 2650.0 0.00117753 0.00275965 7.23083e-06
180 1 0.000306666 2650.0 0.00158013 0.00278536 1.47054e-05
181 1 0.0001466666 2650.0 0.00198582 0.0027881 -8.46224e-06
182 1 0.00028 2650.0 0.00238721 0.00277643 -9.42843e-06
183 1 0.000253334 2650.0 0.00277685 0.00278233 -2.53095e-07
184 1 0.0002 2650.0 0.00315863 0.00276078 1.42899e-05
185 1 0.00012 2650.0 0.0035525 0.00276015 9.72227e-06
186 1 0.00012 2650.0 0.00396902 0.00276613 -1.20417e-05
187 1 0.000226666 2650.0 0.00434077 0.00277468 7.93019e-06
188 1 0.000253334 2650.0 0.00474105 0.00276181 -1.03684e-05
189 1 0.000226666 2650.0 0.00513397 0.00277068 -6.76399e-08
190 1 0.000306666 2650.0 0.00554118 0.00277918 6.42277e-06
191 1 0.00028 2650.0 0.00593072 0.00278099 -8.8582e-06
192 1 0.00012 2650.0 0.00633428 0.00276423 -2.58109e-06
193 1 0.000226666 2650.0 0.00673526 0.00277462 4.21031e-06
194 1 0.0001733334 2650.0 0.00712907 0.0027867 -6.9074e-06
195 1 0.0001733334 2650.0 0.00752052 0.00278812 -1.18586e-05
196 1 0.0001466666 2650.0 0.00790535 0.0027596 -1.28692e-05
197 1 0.00012 2650.0 0.00832511 0.00276587 1.03651e-05
198 1 0.0002 2650.0 0.00870392 0.00276074 -9.61936e-06
199 1 0.0002 2650.0 0.00911143 0.00276809 9.68799e-06
200 1 0.0001466666 2650.0 0.00952 0.00278331 3.0516e-06
201 1 0.0001733334 2650.0 -9.64245e-07 0.00316193 1.26278e-05
202 1 0.0001733334 2650.0 0.000411431 0.0031519 -1.53134e-05
203 1 0.0001466666 2650.0 0.000805937 0.00316276 7.58241e-06
204 1 0.0001466666 2650.0 0.00119644 0.00315367 -6.88224e-07
205 1 0.0001733334 2650.0 0.00158381 0.00318151 1.19314e-05
206 1 0.0001466666 2650.0 0.0019872 0.0031829 -6.73988e-06
207 1 0.000226666 2650.0 0.00236917 0.00315367 7.75424e-06
208 1 0.00012 2650.0 0.00278467 0.00318418 -7.48274e-06
209 1 0.000226666 2650.0 0.00318235 0.00315371 4.12059e-06
210 1 0.00012 2650.0 0.00357996 0.00316126 1.3608e-05
211 1 0.00028 2650.0 0.00395742 0.0031789 -4.39171e-06
212 1 0.000226666 2650.0 0.00435175 0.00318304 1.12823e-05
213 1 0.0001733334 2650.0 0.00473614 0.00315879 9.27255e-07
214 1 0.0001466666 2650.0 0.00514797 0.00315341 9.23125e-06
215 1 0.000253334 2650.0 0.00553006 0.00317056 -2.89098e-06
216 1 0.0001466666 2650.0 0.00595127 0.00317528 -6.67053e-06
217 1 0.000253334 2650.0 0.00632846 0.00317497 -2.26412e-06
218 1 0.0001466666 2650.0 0.0067165 0.00315489 -3.96571e-06
219 1 0.0001466666 2650.0 0.0071231 0.00316563 -3.13195e-07
220 1 0.0001466666 2650.0 0.00750894 0.00315613 -2.14496e-06
221 1 0.00012 2650.0 0.00793081 0.00316873 -1.22999e-05
222 1 0.0001733334 2650.0 0.00830346 0.00317024 9.31313e-06
223 1 0.0001466666 2650.0 0.00871343 0.00316012 -1.58755e-05
224 1 0.0002 2650.0 0.00910183 0.00316919 1.43392e-05
225 1 0.00036 2650.0 0.00951138 0.00318385 6.43604e-07
226 1 0.0001466666 2650.0 -4.55213e-06 0.00355273 1.02099e-05
227 1 0.0001466666 2650.0 0.00040348 0.00356242 6.55097e-06
228 1 0.0001466666 2650.0 0.000799023 0.00356682 -9.76541e-06
229 1 0.0001733334 2650.0 0.00119916 0.00356384 1.33639e-05
230 1 0.0001466666 2650.0 0.00159392 0.00358006 -8.2786e-06
231 1 0.0002 2650.0 0.00196725 0.00355461 1.40268e-05
232 1 0.000333334 2650.0 0.00238178 0.00355812 9.98415e-06
233 1 0.0001733334 2650.0 0.00277603 0.00357608 -1.41862e-05
234 1 0.000306666 2650.0 0.0031726 0.0035562 -1.10848e-05
235 1 0.000226666 2650.0 0.00356211 0.00357205 8.71311e-06
236 1 0.000333334 2650.0 0.00395332 0.00355903 1.60869e-05
237 1 0.0001466666 2650.0 0.00435031 0.00357761 -1.11015e-05
238 1 0.000306666 2650.0 0.00476107 0.00357117 -8.93196e-06
239 1 0.0001466666 2650.0 0.00513781 0.0035497 3.56332e-06
240 1 0.0001466666 2650.0 0.00555756 0.00354926 7.09842e-07
241 1 0.0001466666 2650.0 0.00594711 0.00357269 5.16332e-06
242 1 0.000253334 2650.0 0.00634875 0.00355668 -5.33317e-06
243 1 0.0001466666 2650.0 0.00671586 0.00357742 8.2449e-06
244 1 0.00012 2650.0 0.0071253 0.00357565 1.33412e-05
245 1 0.0001733334 2650.0 0.00750943 0.00357009 1.4133e-05
246 1 0.0001466666 2650.0 0.00792959 0.00355395 -1.61121e-05
247 1 0.000226666 2650.0 0.00831947 0.00356035 -1.54484e-06
248 1 0.000253334 2650.0 0.00870032 0.00357452 1.32595e-05
249 1 0.00012 2650.0 0.00911382 0.00357055 -6.2521e-06
250 1 0.0002 2650.0 0.00949819 0.00357206 3.00841e-06
251 1 0.00012 2650.0 -1.41104e-05 0.00397494 1.38116e-05
252 1 0.0001733334 2650.0 0.000382072 0.0039671 -1.41294e-05
253 1 0.000226666 2650.0 0.000779348 0.00395828 1.55742e-05
254 1 0.00012 2650.0 0.00118474 0.0039757 8.4154e-06
255 1 0.00012 2650.0 0.00159567 0.00394531 -1.40622e-05
256 1 0.0001466666 2650.0 0.00199408 0.003974 5.34268e-07
257 1 0.0002 2650.0 0.00238064 0.00396186 8.58256e-06
258 1 0.000253334 2650.0 0.00277431 0.0039584 -4.57455e-06
259 1 0.00028 2650.0 0.00316871 0.00395765 5.30643e-06
260 1 0.0001466666 2650.0 0.003552 0.00395304 -5.73087e-06
261 1 0.0001466666 2650.0 0.00396647 0.00397269 -1.54165e-05
262 1 0.0002 2650.0 0.00435417 0.00396754 2.9936e-07
263 1 0.0001733334 2650.0 0.00476134 0.00394985 -1.04869e-05
264 1 0.000226666 2650.0 0.0051509 0.00394493 8.11219e-06
265 1 0.0001466666 2650.0 0.00554638 0.00396217 1.45256e-07
266 1 0.0002 2650.0 0.00595133 0.00395602 1.09174e-05
267 1 0.000253334 2650.0 0.00634316 0.00394423 1.80768e-06
268 1 0.00012 2650.0 0.00672244 0.00397117 1.65835e-07
269 1 0.0002 2650.0 0.00712881 0.00396935 7.80272e-06
270 1 0.0002 2650.0 0.00750917 0.00397595 5.41031e-06
271 1 0.0001466666 2650.0 0.00790426 0.00396452 -1.22024e-05
272 1 0.0002 2650.0 0.00832249 0.00395154 -1.12457e-05
273 1 0.00012 2650.0 0.00872636 0.00395406 -7.00734e-06
274 1 0.000253334 2650.0 0.00910957 0.0039674 -1.88967e-06
275 1 0.00028 2650.0 0.00949637 0.00397568 3.38851e-06
276 1 0.000253334 2650.0 -8.54701e-06 0.00436794 7.51992e-06
277 1 0.00012 2650.0 0.000390842 0.00434155 -1.27315e-06
278 1 0.00028 2650.0 0.000778234 0.00436218 1.21246e-05
279 1 0.0001466666 2650.0 0.00120221 0.00434733 -4.76276e-06
280 1 0.0001466666 2650.0 0.00159664 0.00434008 3.78797e-06
281 1 0.0001466666 2650.0 0.00197835 0.00436692 1.22163e-05
282 1 0.0001466666 2650.0 0.00237665 0.00434062 1.49314e-05
283 1 0.0001733334 2650.0 0.00278671 0.0043597 -6.43601e-06
284 1 0.00012 2650.0 0.00318163 0.00437094 5.09205e-07
285 1 0.00036 2650.0 0.00356861 0.00436398 -1.38874e-05
286 1 0.00028 2650.0 0.00396336 0.00436261 1.47946e-05
287 1 0.000253334 2650.0 0.00437198 0.00435975 7.76393e-06
288 1 0.000306666 2650.0 0.00476559 0.00436208 8.21618e-06
289 1 0.00028 2650.0 0.00514855 0.00435366 5.79122e-06
290 1 0.00012 2650.0 0.00554743 0.00435503 -1.81545e-06
291 1 0.000253334 2650.0 0.00594846 0.0043484 -8.33436e-06
292 1 0.0001466666 2650.0 0.00632569 0.0043529 -1.02222e-05
293 1 0.000306666 2650.0 0.00674511 0.00435752 -4.56129e-06
294 1 0.0001733334 2650.0 0.00712482 0.0043716 7.98554e-06
295 1 0.0001733334 2650.0 0.00753612 0.0043604 -1.12029e-05
296 1 0.0001733334 2650.0 0.00790871 0.00434225 6.53151e-06
297 1 0.0001466666 2650.0 0.00831993 0.0043584 -8.17255e-06
298 1 0.00012 2650.0 0.00869951 0.00434574 8.58865e-06
299 1 0.0001733334 2650.0 0.00911553 0.004364 -1.13759e-05
300 1 0.0001466666 2650.0 0.00950199 0.00436927 -8.10747e-06
301 1 0.00012 2650.0 1.20994e-05 0.00476347 -7.93455e-06
302 1 0.000306666 2650.0 0.000398354 0.00476277 1.52801e-05
303 1 0.0002 2650.0 0.000802543 0.00475911 -1.15088e-05
304 1 0.0001466666 2650.0 0.00118683 0.00475081 1.39401e-06
305 1 0.000226666 2650.0 0.00158794 0.00474281 -1.31922e-05
306 1 0.0001466666 2650.0 0.001972 0.00475309 -1.04123e-05
307 1 0.0002 2650.0 0.00236862 0.00475695 -6.99785e-06
308 1 0.000226666 2650.0 0.00277119 0.00476488 8.02237e-06
309 1 0.000306666 2650.0 0.00318359 0.00475176 4.2553e-06
310 1 0.0001733334 2650.0 0.00357596 0.00476452 -3.67177e-08
311 1 0.000253334 2650.0 0.00395849 0.00476805 2.79737e-06
312 1 0.000226666 2650.0 0.00435896 0.00476395 -1.53272e-05
313 1 0.00012 2650.0 0.00475978 0.00475008 -4.24702e-06
314 1 0.0002 2650.0 0.00514559 0.00474435 -1.44764e-06
315 1 0.0002 2650.0 0.00554589 0.00474302 2.62162e-06
316 1 0.0001466666 2650.0 0.00593754 0.00474285 1.463e-05
317 1 0.00028 2650.0 0.00633907 0.00475606 -5.91258e-07
318 1 0.0002 2650.0 0.00674152 0.00474841 1.41809e-05
319 1 0.0002 2650.0 0.00713127 0.00473673 1.11767e-05
320 1 0.000253334 2650.0 0.00751476 0.0047637 1.56121e-05
321 1 0.0002 2650.0 0.00790548 0.00476306 -1.20739e-05
322 1 0.0001466666 2650.0 0.0083116 0.00476623 -4.92766e-06
323 1 0.000253334 2650.0 0.00870724 0.00473951 6.50873e-06
324 1 0.00012 2650.0 0.00911781 0.00476452 5.60958e-06
325 1 0.00012 2650.0 0.00950027 0.0047523 -4.09391e-06
326 1 0.000226666 2650.0 1.11991e-05 0.00515945 -4.41857e-06
327 1 0.0002 2650.0 0.000393878 0.00516278 5.31279e-06
328 1 0.000306666 2650.0 0.000789672 0.00515281 -1.44545e-05
329 1 0.0002 2650.0 0.00118572 0.00515876 1.52735e-05
330 1 0.0001466666 2650.0 0.00158027 0.00514877 -8.27159e-06
331 1 0.0001466666 2650.0 0.00198771 0.00513798 -1.25037e-05
332 1 0.0001466666 2650.0 0.00237227 0.00513753 -7.15521e-06
333 1 0.0001466666 2650.0 0.00278313 0.00515023 -1.40381e-05
334 1 0.00012 2650.0 0.00316565 0.00514612 -1.39937e-05
335 1 0.0001466666 2650.0 0.00356409 0.00515085 1.80345e-06
336 1 0.000226666 2650.0 0.00394414 0.00513321 -1.49173e-05
337 1 0.000226666 2650.0 0.00435288 0.0051465 -8.36387e-06
338 1 0.00012 2650.0 0.00476408 0.00514354 1.59627e-05
339 1 0.0002 2650.0 0.00516194 0.00515797 -5.4787e-06
340 1 0.000226666 2650.0 0.00554433 0.00514226 5.53481e-06
341 1 0.0001733334 2650.0 0.00594318 0.00513318 7.62712e-06
342 1 0.0001466666 2650.0 0.00635058 0.00514364 4.11146e-06
343 1 0.0001466666 2650.0 0.0067241 0.00515449 -1.61102e-05
344 1 0.0001733334 2650.0 0.00713055 0.00515189 -1.4495e-05
345 1 0.0002 2650.0 0.00752159 0.00513447 7.17967e-06
346 1 0.000253334 2650.0 0.00793119 0.00515276 1.10857e-05
347 1 0.000226666 2650.0 0.00830082 0.0051344 -1.27342e-06
348 1 0.000306666 2650.0 0.00872605 0.00515699 6.71072e-06
349 1 0.0002 2650.0 0.00911065 0.00516014 7.27195e-06
350 1 0.00012 2650.0 0.00951086 0.00514182 -1.27318e-05
351 1 0.0001733334 2650.0 -1.45631e-05 0.00553214 -1.37173e-05
352 1 0.0001466666 2650.0 0.0004078 0.00554439 5.81528e-06
353 1 0.00028 2650.0 0.000778666 0.00554427 -1.56144e-05
354 1 0.0001733334 2650.0 0.00119712 0.00554673 1.43202e-05
355 1 0.000226666 2650.0 0.00159578 0.00554049 5.95759e-06
356 1 0.0002 2650.0 0.00199316 0.0055596 -1.50383e-05
357 1 0.0001466666 2650.0 0.00238045 0.00555824 -1.30182e-05
358 1 0.00012 2650.0 0.0027715 0.00553553 -9.99308e-06
359 1 0.0001733334 2650.0 0.00317583 0.00554394 1.41552e-05
360 1 0.0001733334 2650.0 0.00355675 0.00555162 3.38745e-06
361 1 0.000253334 2650.0 0.00396611 0.00554695 1.49182e-05
362 1 0.0001733334 2650.0 0.00434263 0.00555817 -7.81074e-06
363 1 0.000226666 2650.0 0.00476168 0.00554012 -4.75819e-06
364 1 0.000253334 2650.0 0.00514024 0.00555988 1.82902e-06
365 1 0.000333334 2650.0 0.00553665 0.00554669 -7.62149e-06
366 1 0.000226666 2650.0 0.00595523 0.00554273 -1.15804e-05
367 1 0.00012 2650.0 0.00633037 0.00553661 -1.38081e-06
368 1 0.0001466666 2650.0 0.00672313 0.00555536 -1.75486e-07
369 1 0.000226666 2650.0 0.00712701 0.00554177 4.17089e-06
370 1 0.0001466666 2650.0 0.00751056 0.00553685 -4.82129e-06
371 1 0.0001733334 2650.0 0.00792102 0.00554597 1.52676e-05
372 1 0.0002 2650.0 0.00831055 0.00553212 -8.03473e-06
373 1 0.0001733334 2650.0 0.00871547 0.00554624 1.53988e-05
374 1 0.0002 2650.0 0.00910431 0.00553274 1.11654e-05
375 1 0.00012 2650.0 0.0095003 0.00553175 1.20226e-05
376 1 0.00012 2650.0 -1.43335e-05 0.00593043 5.45923e-06
377 1 0.0001466666 2650.0 0.000392534 0.00593875 -4.95864e-06
378 1 0.000253334 2650.0 0.000784875 0.00594378 1.06506e-05
379 1 0.0001466666 2650.0 0.00118217 0.00593918 -6.9022e-06
380 1 0.0001466666 2650.0 0.00157077 0.00593788 7.8233e-06
381 1 0.000226666 2650.0 0.00198709 0.00594177 1.85944e-06
382 1 0.0001466666 2650.0 0.00236168 0.0059363 8.79311e-06
383 1 0.00012 2650.0 0.00278138 0.00594045 -5.59414e-06
384 1 0.000226666 2650.0 0.00317204 0.00593232 -1.25359e-05
385 1 0.0001466666 2650.0 0.00357046 0.00592825 -1.04769e-06
386 1 0.0001466666 2650.0 0.00394463 0.00593012 -7.20063e-06
387 1 0.0001733334 2650.0 0.00434892 0.00593604 5.22619e-06
388 1 0.0002 2650.0 0.00475218 0.00593241 5.37518e-06
389 1 0.0001466666 2650.0 0.00515749 0.00594829 -1.36383e-05
390 1 0.0001733334 2650.0 0.00555499 0.00592882 -1.51574e-05
391 1 0.0001733334 2650.0 0.00595001 0.00594063 -2.28276e-06
392 1 0.000253334 2650.0 0.00633121 0.00593488 9.80027e-06
393 1 0.00012 2650.0 0.00672353 0.00593352 -3.68525e-06
394 1 0.000226666 2650.0 0.00713886 0.0059525 1.09529e-05
395 1 0.00012 2650.0 0.0075134 0.00592889 1.19048e-05
396 1 0.000253334 2650.0 0.00793317 0.00592502 -2.64061e-06
397 1 0.0002 2650.0 0.00832322 0.00593135 1.52356e-05
398 1 0.00028 2650.0 0.00871925 0.00594175 9.02335e-06
399 1 0.0002 2650.0 0.00909901 0.00594479 3.38763e-06
400 1 0.0002 2650.0 0.00951313 0.00593643 -1.55431e-05
401 1 0.00012 2650.0 7.7178e-06 0.00635187 -1.51156e-05
402 1 0.0002 2650.0 0.000396764 0.0063447 1.25389e-05
403 1 0.0002 2650.0 0.000803828 0.00635062 -6.41852e-07
404 1 0.00012 2650.0 0.00118959 0.0063408 -8.42499e-07
405 1 0.00012 2650.0 0.00158292 0.00634865 1.28712e-05
406 1 0.000226666 2650.0 0.00197214 0.00635105 -8.84132e-07
407 1 0.0002 2650.0 0.00238799 0.00634777 -4.30387e-06
408 1 0.00028 2650.0 0.00278602 0.00634881 8.36776e-06
409 1 0.000253334 2650.0 0.00315651 0.00633845 1.10772e-05
410 1 0.0002 2650.0 0.00356871 0.00632625 -1.13901e-05
411 1 0.000306666 2650.0 0.00394578 0.00633579 -7.85515e-07
412 1 0.0001733334 2650.0 0.00434065 0.00632711 -1.13442e-05
413 1 0.000253334 2650.0 0.00476359 0.00633953 1.17117e-05
414 1 0.0001466666 2650.0 0.00515691 0.00633179 -5.80085e-06
415 1 0.0001733334 2650.0 0.00554078 0.00634115 -2.34565e-07
416 1 0.000253334 2650.0 0.00595047 0.00632139 -9.7779e-06
417 1 0.0001466666 2650.0 0.00633163 0.00634086 -1.83543e-06
418 1 0.0002 2650.0 0.00672874 0.0063222 -1.33599e-05
419 1 0.0001733334 2650.0 0.00712013 0.00632906 3.48883e-06
420 1 0.0001733334 2650.0 0.00751684 0.006351 -8.38172e-06
421 1 0.0001733334 2650.0 0.00792362 0.00632541 -6.64182e-07
422 1 0.00028 2650.0 0.0083311 0.00635088 7.43374e-06
423 1 0.0002 2650.0 0.00871653 0.00632599 6.58861e-06
424 1 0.000226666 2650.0 0.00909949 0.00634985 8.69916e-07
425 1 0.0001733334 2650.0 0.00951228 0.00634362 -8.78817e-06
426 1 0.0002 2650.0 8.75003e-06 0.00673024 -2.73119e-06
427 1 0.0002 2650.0 0.000403634 0.00672853 -4.38581e-06
428 1 0.0002 2650.0 0.00078975 0.006725 -1.16948e-05
429 1 0.00012 2650.0 0.0011726 0.00673827 1.37503e-05
430 1 0.0001733334 2650.0 0.00157618 0.00673424 -1.03587e-05
431 1 0.0001733334 2650.0 0.00196579 0.00674252 -1.43632e-05
432 1 0.0001733334 2650.0 0.00238667 0.00672439 -3.92605e-06
433 1 0.00012 2650.0 0.00278572 0.00671619 1.44235e-05
434 1 0.00012 2650.0 0.00316661 0.0067367 -1.43909e-05
435 1 0.000253334 2650.0 0.00356271 0.00674534 -3.68718e-06
436 1 0.00012 2650.0 0.0039707 0.00673581 1.34503e-05
437 1 0.000253334 2650.0 0.00436001 0.0067365 -6.95343e-07
438 1 0.0002 2650.0 0.00476176 0.00674554 1.21065e-05
439 1 0.0002 2650.0 0.00515017 0.00671638 2.68298e-06
440 1 0.0002 2650.0 0.00553597 0.00674192 9.25711e-06
441 1 0.0001733334 2650.0 0.00593951 0.00671927 -8.85393e-06
442 1 0.000253334 2650.0 0.00634128 0.00673032 2.54427e-06
443 1 0.0001466666 2650.0 0.00672561 0.00673815 -4.48821e-06
444 1 0.00012 2650.0 0.00712185 0.00674353 -2.50406e-06
445 1 0.000226666 2650.0 0.0075258 0.00672804 1.35619e-05
446 1 0.0002 2650.0 0.00792154 0.00672486 1.20427e-05
447 1 0.000253334 2650.0 0.00831439 0.00673528 2.48616e-06
448 1 0.0001466666 2650.0 0.00870095 0.00673737 -9.98743e-06
449 1 0.0001466666 2650.0 0.0091136 0.00672532 8.20909e-06
450 1 0.00012 2650.0 0.00951505 0.00674128 4.43663e-06
451 1 0.0001733334 2650.0 1.4005e-05 0.00712354 -2.95018e-06
452 1 0.00012 2650.0 0.000384338 0.00714103 -1.23954e-05
453 1 0.0001733334 2650.0 0.00079531 0.00712463 1.33366e-05
454 1 0.00028 2650.0 0.00119241 0.00711827 6.36813e-06
455 1 0.00012 2650.0 0.00159597 0.00712708 1.44794e-05
456 1 0.000226666 2650.0 0.0019787 0.00711735 -1.36256e-05
457 1 0.00028 2650.0 0.00237413 0.0071342 -5.43676e-06
458 1 0.0001466666 2650.0 0.00276434 0.00713648 9.66804e-06
459 1 0.0001466666 2650.0 0.00317278 0.00712364 -1.46181e-05
460 1 0.0001733334 2650.0 0.00356691 0.0071163 -6.80291e-06
461 1 0.0001733334 2650.0 0.00396302 0.00714189 -7.29236e-06
462 1 0.00028 2650.0 0.00436252 0.00713224 1.459e-05
463 1 0.0001733334 2650.0 0.00476255 0.00714106 -1.57164e-05
464 1 0.000333334 2650.0 0.00515929 0.00711991 -1.20586e-05
465 1 0.00012 2650.0 0.00553648 0.00713754 -1.52841e-05
466 1 0.0002 2650.0 0.00592748 0.00714294 -5.5683e-06
467 1 0.0001466666 2650.0 0.00632082 0.0071141 1.00529e-05
468 1 0.0001466666 2650.0 0.00672577 0.00711353 5.84224e-08
469 1 0.000226666 2650.0 0.0071379 0.0071247 1.57392e-05
470 1 0.0001733334 2650.0 0.00753848 0.00713162 1.22301e-05
471 1 0.0002 2650.0 0.00792622 0.00711244 -1.2318e-05
472 1 0.0002 2650.0 0.00832278 0.00711855 -1.3947e-06
473 1 0.0001733334 2650.0 0.00869643 0.0071199 -3.86459e-06
474 1 0.0001466666 2650.0 0.00911785 0.00714282 5.40555e-06
475 1 0.0001466666 2650.0 0.00950542 0.00713398 -7.82169e-06
476 1 0.00028 2650.0 -1.24119e-05 0.00754014 1.40639e-05
477 1 0.0002 2650.0 0.000410057 0.0075155 1.42188e-05
478 1 0.0001733334 2650.0 0.000784165 0.00751524 2.75488e-07
479 1 0.00036 2650.0 0.00118493 0.00750847 -1.5818e-05
480 1 0.0001733334 2650.0 0.0015721 0.00751416 7.71227e-06
481 1 0.000253334 2650.0 0.0019678 0.00753265 5.60455e-06
482 1 0.0002 2650.0 0.00238489 0.00752405 -1.13023e-05
483 1 0.000226666 2650.0 0.00277493 0.00753852 1.29443e-05
484 1 0.00028 2650.0 0.00315628 0.00752347 -9.84146e-06
485 1 0.0002 2650.0 0.00356064 0.00753788 -3.24893e-07
486 1 0.0002 2650.0 0.00397512 0.00753663 -9.67156e-06
487 1 0.000253334 2650.0 0.00435694 0.00752701 -2.517e-06
488 1 0.0001466666 2650.0 0.00476323 0.007513 5.10204e-06
489 1 0.000226666 2650.0 0.00513521 0.00753858 -1.55162e-05
490 1 0.0002 2650.0 0.00555124 0.00751273 -1.38078e-05
491 1 0.00012 2650.0 0.0059533 0.00753581 1.00546e-06
492 1 0.0001733334 2650.0 0.00632193 0.00751705 -9.38987e-06
493 1 0.00012 2650.0 0.00673693 0.00751097 2.4188e-06
494 1 0.0002 2650.0 0.00711886 0.00752915 1.06746e-05
495 1 0.0002 2650.0 0.00753292 0.00752651 1.75308e-06
496 1 0.00012 2650.0 0.00793237 0.00753789 -2.56853e-07
497 1 0.0002 2650.0 0.00830828 0.00753965 1.5928e-05
498 1 0.0002 2650.0 0.00872549 0.00753312 -9.58045e-06
499 1 0.0001466666 2650.0 0.0091173 0.00753533 -1.12936e-05
500 1 0.0001466666 2650.0 0.0094914 0.0075151 -6.75673e-06
501 1 0.0002 2650.0 1.69614e-06 0.00791505 -1.31415e-05
502 1 0.0002 2650.0 0.000396996 0.0079173 -5.13157e-06
503 1 0.00028 2650.0 0.000794569 0.00791452 1.59134e-05
504 1 0.000253334 2650.0 0.00118273 0.00790491 -5.76876e-06
505 1 0.0002 2650.0 0.00156924 0.00793353 -5.20262e-07
506 1 0.000253334 2650.0 0.00198396 0.00790708 -1.21724e-05
507 1 0.00012 2650.0 0.00236737 0.00790879 1.59818e-05
508 1 0.0001733334 2650.0 0.0027827 0.00790915 5.90714e-06
509 1 0.00012 2650.0 0.00317574 0.00792486 -1.12652e-05
510 1 0.00012 2650.0 0.00357497 0.00792799 -1.09104e-07
511 1 0.000253334 2650.0 0.0039731 0.00791726 -1.56411e-05
512 1 0.0001466666 2650.0 0.0043694 0.00790604 -5.32295e-06
513 1 0.0001733334 2650.0 0.00474564 0.00793467 7.60437e-06
514 1 0.0002 2650.0 0.00513671 0.00793515 -1.32763e-05