LIGGGHTS data file

 15625 atoms

 2 atom types

 -0.000228885 0.0113169 xlo xhi
 -0.000228725 0.0113168 ylo yhi
 -0.000228806 0.0113169 zlo zhi

Atoms

1 1 0.000206666 2650.0 -1.61686e-05 -9.74911e-07 -1.79198e-05
2 1 0.0001711112 2650.0 0.000473499 2.72683e-07 9.19167e-06
3 1 0.0001355556 2650.0 0.00091984 6.27638e-06 -1.2777e-05
4 1 0.0001711112 2650.0 0.0013843 -8.44977e-06 -6.7674e-07
5 1 0.00042 2650.0 0.00185182 6.20389e-06 1.63311e-05
6 1 0.0001711112 2650.0 0.00232119 -4.69428e-06 -8.18295e-06
7 1 0.0001711112 2650.0 0.00275763 -1.80758e-05 -1.39763e-06
8 1 0.0001355556 2650.0 0.00321776 1.52113e-05 1.5328e-05
9 1 0.0001355556 2650.0 0.00370649 -1.7659e-05 1.09606e-05
10 1 0.0001355556 2650.0 0.00417317 -5.02804e-06 1.45879e-05
11 1 0.000242222 2650.0 0.00462883 1.74952e-05 -5.1618e-06
12 1 0.0001 2650.0 0.0050787 -1.16848e-05 -1.62482e-05
13 1 0.000206666 2650.0 0.00552749 1.75503e-05 1.42117e-05
14 1 0.0001711112 2650.0 0.00600302 1.92858e-06 -1.86999e-05
15 1 0.0001 2650.0 0.00648538 1.93225e-06 5.17376e-06
16 1 0.0001 2650.0 0.00694533 -1.49746e-05 -5.77681e-06
17 1 0.0001355556 2650.0 0.00740928 1.75142e-05 1.25649e-05
18 1 0.0001711112 2650.0 0.00784426 -9.6898e-06 -1.39932e-05
19 1 0.0001711112 2650.0 0.00832309 -1.83869e-05 -1.37047e-05
20 1 0.0001355556 2650.0 0.00875927 -8.78642e-06 1.11944e-05
21 1 0.0001711112 2650.0 0.00925357 -1.42192e-05 -1.04444e-05
22 1 0.000206666 2650.0 0.00970555 -9.07586e-06 -1.49467e-05
23 1 0.0001711112 2650.0 0.0101728 -1.07039e-05 -1.10156e-05
24 1 0.0001711112 2650.0 0.0106309 -6.74606e-06 -1.88059e-05
25 1 0.000206666 2650.0 0.0111011 1.61458e-05 -3.52811e-06
26 1 0.000206666 2650.0 1.11993e-05 0.000444145 -2.69267e-06
27 1 0.000242222 2650.0 0.000452887 0.000468548 1.34678e-05
28 1 0.0001355556 2650.0 0.000930265 0.00045138 9.0589e-06
29 1 0.0001 2650.0 0.00138057 0.00045982 -1.13882e-05
30 1 0.000206666 2650.0 0.00186516 0.000474196 -1.24697e-05
31 1 0.0001711112 2650.0 0.00229514 0.000461514 2.35514e-06
32 1 0.0001711112 2650.0 0.00277825 0.000450149 -9.11663e-06
33 1 0.000206666 2650.0 0.00325204 0.000464468 1.69187e-05
34 1 0.000206666 2650.0 0.00367961 0.000473989 -1.32695e-05
35 1 0.000242222 2650.0 0.00415791 0.000472722 1.84623e-05
36 1 0.000206666 2650.0 0.00461601 0.000450732 -2.88296e-06
37 1 0.0001 2650.0 0.00508763 0.000462354 -1.50655e-05
38 1 0.0001 2650.0 0.00555976 0.000474024 8.26492e-06
39 1 0.0001 2650.0 0.00599944 0.000469559 5.94149e-07
40 1 0.000206666 2650.0 0.00647466 0.000450608 -1.29513e-06
41 1 0.0001 2650.0 0.00693564 0.0004547 1.38727e-05
42 1 0.0001 2650.0 0.00740075 0.000444427 -1.74793e-05
43 1 0.000277778 2650.0 0.00786167 0.000469131 -9.31252e-06
44 1 0.0001355556 2650.0 0.0083303 0.000476576 -5.90523e-06
45 1 0.0001355556 2650.0 0.00879165 0.000454898 1.68767e-05
46 1 0.0001 2650.0 0.00923569 0.000449258 -1.35427e-05
47 1 0.000242222 2650.0 0.00968373 0.000466941 -2.11204e-06
48 1 0.000313334 2650.0 0.0101611 0.000471113 3.41803e-06
49 1 0.0001711112 2650.0 0.0106168 0.000458626 -6.50409e-06
50 1 0.000206666 2650.0 0.0110914 0.000470384 -5.68289e-06
51 1 0.000206666 2650.0 8.20234e-06 0.000924154 -1.22116e-05
52 1 0.000242222 2650.0 0.000475773 0.000922958 -9.73491e-06
53 1 0.0001355556 2650.0 0.000907685 0.000916313 1.22445e-05
54 1 0.000206666 2650.0 0.00139547 0.000918391 2.18219e-06
55 1 0.000206666 2650.0 0.00185809 0.000934726 -1.81708e-07
56 1 0.000277778 2650.0 0.00231783 0.000909506 -1.73736e-05
57 1 0.0001355556 2650.0 0.0027781 0.00092879 -5.05849e-06
58 1 0.0001355556 2650.0 0.0032282 0.000918656 -1.19298e-06
59 1 0.0001 2650.0 0.00367952 0.000917839 -1.44026e-05
60 1 0.0001355556 2650.0 0.00416449 0.000939117 1.87284e-05
61 1 0.0001 2650.0 0.00462697 0.000920227 1.75832e-05
62 1 0.0001711112 2650.0 0.00508326 0.000924844 1.71624e-05
63 1 0.0001355556 2650.0 0.00554139 0.000941948 1.29398e-06
64 1 0.000242222 2650.0 0.0060189 0.00092121 -1.54226e-05
65 1 0.0001 2650.0 0.00645429 0.000906284 -1.34705e-06
66 1 0.0001355556 2650.0 0.0069324 0.000940085 -9.55474e-06
67 1 0.0001355556 2650.0 0.00737996 0.000940069 -1.19294e-05
68 1 0.0001 2650.0 0.00784839 0.00091318 -3.09939e-06
69 1 0.0001355556 2650.0 0.00831292 0.000939294 8.16235e-07
70 1 0.0001355556 2650.0 0.00877507 0.000917778 -1.13675e-05
71 1 0.000206666 2650.0 0.00922832 0.000933224 6.17249e-06
72 1 0.0001711112 2650.0 0.00971978 0.000938347 1.90966e-06
73 1 0.000242222 2650.0 0.0101674 0.000932924 -7.02821e-06
74 1 0.0001711112 2650.0 0.0106279 0.000909287 1.26365e-05
75 1 0.000242222 2650.0 0.0110712 0.000940288 1.25418e-05
76 1 0.000206666 2650.0 1.80504e-05 0.00137568 1.35088e-05
77 1 0.0001355556 2650.0 0.000478402 0.00138555 1.27549e-05
78 1 0.0001711112 2650.0 0.000931454 0.00139246 -1.85543e-05
79 1 0.000206666 2650.0 0.00139346 0.00137859 -7.84052e-06
80 1 0.0001711112 2650.0 0.00184327 0.00138664 -2.72508e-06
81 1 0.0001711112 2650.0 0.00232323 0.00139806 -5.69832e-08
82 1 0.0001355556 2650.0 0.00275928 0.00136892 1.59883e-05
83 1 0.0001 2650.0 0.00322872 0.00139854 1.18417e-05
84 1 0.0001355556 2650.0 0.00370309 0.00136902 -1.75016e-05
85 1 0.000242222 2650.0 0.00416804 0.0013821 -7.24496e-06
86 1 0.0001355556 2650.0 0.00460768 0.00137225 -8.81672e-06
87 1 0.0001355556 2650.0 0.00507535 0.00138694 -1.75861e-05
88 1 0.0001355556 2650.0 0.00553219 0.00138682 -8.83125e-06
89 1 0.0001711112 2650.0 0.00601985 0.00139341 -1.57469e-05
90 1 0.000242222 2650.0 0.00648552 0.00137746 -1.73226e-05
91 1 0.0001 2650.0 0.00692447 0.0013829 4.49668e-06
92 1 0.0001355556 2650.0 0.00740543 0.00139393 3.52056e-06
93 1 0.0001355556 2650.0 0.0078671 0.00140375 -2.87717e-06
94 1 0.000206666 2650.0 0.00830563 0.00138045 1.20844e-05
95 1 0.000242222 2650.0 0.00878152 0.00138371 9.31238e-06
96 1 0.000206666 2650.0 0.00922339 0.00139451 6.34639e-06
97 1 0.000242222 2650.0 0.00969413 0.00138619 5.66819e-07
98 1 0.0001 2650.0 0.0101649 0.00139189 -7.24182e-06
99 1 0.0001355556 2650.0 0.0106288 0.00140122 1.88709e-06
100 1 0.000206666 2650.0 0.0110901 0.00138573 -9.50906e-06
101 1 0.0001711112 2650.0 -2.94379e-07 0.00185218 3.89789e-06
102 1 0.000242222 2650.0 0.000466438 0.00185587 -1.86247e-05
103 1 0.000242222 2650.0 0.000920051 0.00185598 4.80399e-06
104 1 0.0001355556 2650.0 0.00138583 0.00186321 -1.30223e-05
105 1 0.0001355556 2650.0 0.00184429 0.00185406 1.08057e-05
106 1 0.0001 2650.0 0.00229171 0.00183731 8.14987e-07
107 1 0.0001711112 2650.0 0.00278589 0.00185062 -7.81929e-06
108 1 0.000242222 2650.0 0.00324587 0.00185225 1.49273e-05
109 1 0.000206666 2650.0 0.00369982 0.00185665 1.11109e-05
110 1 0.000242222 2650.0 0.00416686 0.00183688 8.7742e-06
111 1 0.0001711112 2650.0 0.00463014 0.00182975 4.27035e-07
112 1 0.000277778 2650.0 0.00507717 0.00185866 -1.71692e-05
113 1 0.0001 2650.0 0.00554682 0.0018384 1.65095e-05
114 1 0.0001 2650.0 0.00599172 0.00183749 9.48128e-06
115 1 0.0001711112 2650.0 0.00645503 0.00184703 1.44517e-05
116 1 0.000242222 2650.0 0.0069168 0.00185865 -8.24743e-06
117 1 0.000277778 2650.0 0.00739006 0.00183667 -1.75557e-05
118 1 0.000277778 2650.0 0.00786197 0.00183234 -5.73319e-06
119 1 0.0001 2650.0 0.0083105 0.00183127 -5.50328e-06
120 1 0.000206666 2650.0 0.00878099 0.00183926 1.75045e-05
121 1 0.000206666 2650.0 0.0092404 0.00185287 6.54248e-06
122 1 0.0001711112 2650.0 0.00970131 0.00185777 -5.95983e-06
123 1 0.0001355556 2650.0 0.0101671 0.00184574 -6.80432e-06
124 1 0.0001711112 2650.0 0.0106108 0.00185908 7.16668e-06
125 1 0.0001711112 2650.0 0.0110698 0.00184778 -1.29674e-05
126 1 0.000206666 2650.0 1.25164e-05 0.00231605 -1.15773e-05
127 1 0.0001 2650.0 0.000475935 0.00231415 1.79207e-05
128 1 0.0001355556 2650.0 0.000926125 0.0023087 6.04603e-06
129 1 0.000206666 2650.0 0.00139514 0.00232622 -1.87736e-05
130 1 0.000242222 2650.0 0.00183608 0.00232278 5.24437e-07
131 1 0.0001711112 2650.0 0.00231681 0.00231091 1.09233e-05
132 1 0.0001711112 2650.0 0.00276493 0.00232296 1.48207e-05
133 1 0.0001355556 2650.0 0.00322351 0.00231994 -1.59917e-05
134 1 0.0001355556 2650.0 0.00368229 0.00231064 -3.36226e-06
135 1 0.0001355556 2650.0 0.0041595 0.00230193 -1.40608e-06
136 1 0.000242222 2650.0 0.004613 0.00230387 2.15911e-06
137 1 0.0001711112 2650.0 0.00508216 0.00232465 1.77427e-05
138 1 0.000277778 2650.0 0.00554072 0.00232285 -1.12466e-05
139 1 0.0001711112 2650.0 0.00602168 0.00230194 1.70597e-05
140 1 0.000206666 2650.0 0.00647738 0.0023264 -1.05274e-05
141 1 0.000242222 2650.0 0.00693804 0.00232228 8.18596e-06
142 1 0.0001 2650.0 0.00738138 0.00231753 -6.01829e-06
143 1 0.0001355556 2650.0 0.00785745 0.0023279 -5.50365e-06
144 1 0.0001711112 2650.0 0.00831279 0.00231694 1.08557e-05
145 1 0.0001 2650.0 0.00876851 0.00231711 7.44989e-06
146 1 0.000206666 2650.0 0.00925679 0.00229947 9.90083e-06
147 1 0.0001711112 2650.0 0.00970961 0.00230831 -1.63896e-05
148 1 0.0001355556 2650.0 0.0101528 0.00231159 8.38412e-06
149 1 0.000277778 2650.0 0.0106196 0.00231324 1.4653e-05
150 1 0.0001355556 2650.0 0.0110939 0.00230554 -8.31441e-06
151 1 0.000206666 2650.0 6.3168e-06 0.00275832 -9.07338e-06
152 1 0.0001355556 2650.0 0.000450888 0.00278465 -1.55943e-05
153 1 0.000206666 2650.0 0.000935096 0.00275909 9.88772e-06
154 1 0.000206666 2650.0 0.00140012 0.00277394 -4.30505e-06
155 1 0.0001711112 2650.0 0.00184218 0.00276613 4.16452e-06
156 1 0.000206666 2650.0 0.00229744 0.00278332 5.66593e-06
157 1 0.000206666 2650.0 0.00278117 0.00277372 4.95159e-06
158 1 0.000206666 2650.0 0.00321981 0.00277069 9.39061e-06
159 1 0.0001711112 2650.0 0.00370897 0.00275955 8.81366e-06
160 1 0.0001355556 2650.0 0.00415095 0.00278921 -9.14694e-06
161 1 0.0001355556 2650.0 0.00462005 0.00278149 1.68582e-05
162 1 0.0001711112 2650.0 0.00506957 0.00277882 -1.32371e-05
163 1 0.000206666 2650.0 0.00555963 0.00276393 -1.17476e-05
164 1 0.0001355556 2650.0 0.00599354 0.00277895 -2.98048e-06
165 1 0.0001 2650.0 0.00646012 0.00277802 -3.81833e-06
166 1 0.000242222 2650.0 0.00693975 0.00278847 4.82002e-06
167 1 0.0001711112 2650.0 0.00739661 0.00277807 1.74085e-05
168 1 0.0001355556 2650.0 0.00786642 0.00275771 -1.47784e-05
169 1 0.000206666 2650.0 0.00831877 0.00275684 -4.64472e-07
170 1 0.0001355556 2650.0 0.00879621 0.00276091 1.19941e-05
171 1 0.000242222 2650.0 0.00923706 0.00275472 4.39646e-06
172 1 0.0001355556 2650.0 0.00969426 0.00276206 2.05828e-06
173 1 0.0001 2650.0 0.0101706 0.00278873 -1.17807e-05
174 1 0.000242222 2650.0 0.0106244 0.0027624 1.36689e-05
175 1 0.000206666 2650.0 0.0110727 0.00278711 1.10475e-05
176 1 0.0001355556 2650.0 9.8178e-07 0.00321617 -1.28552e-05
177 1 0.000206666 2650.0 0.000469248 0.00322181 -5.26829e-06
178 1 0.0001 2650.0 0.000907429 0.00324399 -1.48815e-05
179 1 0.0001355556 2650.0 0.00139543 0.00324334 -1.25847e-05
180 1 0.0001711112 2650.0 0.00186607 0.00322037 1.12392e-05
181 1 0.0001 2650.0 0.00231983 0.00323659 2.7026e-06
182 1 0.0001355556 2650.0 0.00275903 0.00323693 1.0531e-05
183 1 0.0001 2650.0 0.00324956 0.003242 -3.30914e-06
184 1 0.000206666 2650.0 0.00368304 0.00323809 -3.04754e-06
185 1 0.0001711112 2650.0 0.00415693 0.0032423 1.64556e-05
186 1 0.0001355556 2650.0 0.00460717 0.00324493 2.32166e-06
187 1 0.0001711112 2650.0 0.00509249 0.00324228 -1.08938e-05
188 1 0.0001 2650.0 0.00555539 0.00322122 1.84813e-05
189 1 0.0001355556 2650.0 0.00601861 0.00323719 8.69777e-06
190 1 0.0001 2650.0 0.00647879 0.00325181 -2.18325e-06
191 1 0.000206666 2650.0 0.00693992 0.00325121 -6.29497e-06
192 1 0.000206666 2650.0 0.00739465 0.00324793 -1.41128e-05
193 1 0.0001711112 2650.0 0.00785441 0.00322655 3.64462e-06
194 1 0.0001355556 2650.0 0.00829734 0.00322358 3.70243e-06
195 1 0.0001355556 2650.0 0.00878588 0.00321818 -1.67548e-05
196 1 0.000277778 2650.0 0.00925142 0.00321972 1.67546e-05
197 1 0.0001711112 2650.0 0.00968678 0.00324933 -3.08073e-06
198 1 0.0001711112 2650.0 0.0101721 0.00322851 -2.64841e-06
199 1 0.0001 2650.0 0.0106426 0.00322286 3.54031e-06
200 1 0.000206666 2650.0 0.0110927 0.00322948 1.47938e-05
201 1 0.0001355556 2650.0 -9.67607e-06 0.00368588 -1.39251e-06
202 1 0.0001355556 2650.0 0.000456368 0.00368757 1.16273e-05
203 1 0.000206666 2650.0 0.000918076 0.00369492 1.64346e-05
204 1 0.0001355556 2650.0 0.00139721 0.00371124 -1.06907e-05
205 1 0.0001 2650.0 0.00183337 0.00368599 -6.3089e-06
206 1 0.0001711112 2650.0 0.00230533 0.00369876 1.50266e-05
207 1 0.000206666 2650.0 0.00278179 0.00368606 -1.35011e-05
208 1 0.0001711112 2650.0 0.00323433 0.00369648 -9.32821e-06
209 1 0.0001711112 2650.0 0.00371119 0.00369686 7.26926e-06
210 1 0.000206666 2650.0 0.00416291 0.00368479 -1.51098e-05
211 1 0.0001 2650.0 0.00461057 0.0036774 -1.23225e-05
212 1 0.0001355556 2650.0 0.005084 0.00368756 -1.62283e-06
213 1 0.00042 2650.0 0.0055607 0.00370533 -9.54806e-06
214 1 0.0001 2650.0 0.00599271 0.00370719 -1.61645e-05
215 1 0.0001355556 2650.0 0.00645962 0.00370542 -5.96501e-06
216 1 0.000206666 2650.0 0.00692168 0.00370193 1.58875e-05
217 1 0.000242222 2650.0 0.00739367 0.00370874 5.11293e-06
218 1 0.0001711112 2650.0 0.00786755 0.00369517 -1.46002e-05
219 1 0.000206666 2650.0 0.00832879 0.00371009 1.17082e-05
220 1 0.000206666 2650.0 0.00877157 0.00369822 2.54053e-06
221 1 0.000348888 2650.0 0.00922473 0.00370479 -2.93078e-06
222 1 0.0001355556 2650.0 0.0096977 0.00368465 -9.43326e-06
223 1 0.0001 2650.0 0.0101524 0.00371214 1.86234e-05
224 1 0.000384444 2650.0 0.0106447 0.00369863 2.57346e-06
225 1 0.0001355556 2650.0 0.0110969 0.00369736 -5.57463e-06
226 1 0.000206666 2650.0 1.3465e-05 0.00415485 7.89403e-06
227 1 0.0001711112 2650.0 0.000458956 0.00413932 7.78953e-07
228 1 0.000206666 2650.0 0.000937052 0.00417548 1.00504e-05
229 1 0.000242222 2650.0 0.00137537 0.00416418 -9.82426e-06
230 1 0.000206666 2650.0 0.00184215 0.00415471 8.30277e-06
231 1 0.0001711112 2650.0 0.002297 0.00415929 1.21581e-05
232 1 0.000206666 2650.0 0.00276712 0.00416225 -8.92246e-06
233 1 0.0001 2650.0 0.00322681 0.00415347 -1.00436e-05
234 1 0.0001711112 2650.0 0.00370874 0.0041422 -1.67263e-05
235 1 0.0001355556 2650.0 0.0041569 0.00416783 1.60279e-05
236 1 0.0001355556 2650.0 0.00463856 0.0041423 -5.80807e-06
237 1 0.000277778 2650.0 0.00506529 0.00415128 -1.19535e-05
238 1 0.000206666 2650.0 0.00554895 0.00417649 -4.53785e-06
239 1 0.000242222 2650.0 0.00601871 0.00414495 4.9147e-06
240 1 0.0001 2650.0 0.00647628 0.00414629 8.21523e-06
241 1 0.0001711112 2650.0 0.00691993 0.00415969 -1.09964e-05
242 1 0.000242222 2650.0 0.00738024 0.00414955 6.80936e-06
243 1 0.0001 2650.0 0.00784049 0.00414725 -1.22119e-05
244 1 0.0001355556 2650.0 0.00832504 0.00414704 1.05568e-05
245 1 0.0001 2650.0 0.0087732 0.0041526 -4.45472e-06
246 1 0.000206666 2650.0 0.00925139 0.0041437 -3.07108e-06
247 1 0.0001711112 2650.0 0.00968337 0.00417059 -9.97323e-06
248 1 0.000206666 2650.0 0.0101491 0.00416896 -4.27477e-06
249 1 0.0001711112 2650.0 0.0106377 0.0041724 -1.29765e-05
250 1 0.000313334 2650.0 0.0110986 0.00415984 3.98481e-06
251 1 0.0001 2650.0 -8.82023e-06 0.00463005 -6.47121e-07
252 1 0.0001711112 2650.0 0.000472233 0.0046164 -1.52189e-05
253 1 0.000206666 2650.0 0.000931988 0.00461359 -3.41329e-06
254 1 0.0001355556 2650.0 0.00139917 0.00462161 -4.01174e-06
255 1 0.0001355556 2650.0 0.00185788 0.0046383 -1.34023e-05
256 1 0.0001711112 2650.0 0.00230852 0.00460399 1.46052e-06
257 1 0.0001355556 2650.0 0.00278682 0.00460768 9.33785e-06
258 1 0.0001 2650.0 0.00322961 0.00461869 7.27424e-06
259 1 0.0001355556 2650.0 0.003709 0.00462421 -2.01037e-06
260 1 0.0001355556 2650.0 0.00416286 0.00461808 6.39144e-06
261 1 0.000242222 2650.0 0.00461326 0.00461338 5.20183e-06
262 1 0.0001711112 2650.0 0.00507771 0.00461575 -4.3249e-07
263 1 0.0001355556 2650.0 0.00553274 0.00463392 -6.37947e-06
264 1 0.0001711112 2650.0 0.00602481 0.00463855 -7.64913e-06
265 1 0.0001355556 2650.0 0.00646683 0.0046211 -1.06889e-05
266 1 0.0001355556 2650.0 0.00694536 0.00463628 1.38907e-05
267 1 0.000206666 2650.0 0.00739966 0.0046054 5.16786e-06
268 1 0.0001355556 2650.0 0.00784581 0.00462297 -9.43712e-06
269 1 0.000206666 2650.0 0.00831519 0.00460503 -9.70434e-06
270 1 0.000206666 2650.0 0.0087841 0.00462178 1.1085e-05
271 1 0.0001 2650.0 0.00922959 0.00461401 2.47527e-06
272 1 0.0001711112 2650.0 0.0096861 0.0046266 -1.30578e-05
273 1 0.0001355556 2650.0 0.0101689 0.00461984 1.51281e-05
274 1 0.0001355556 2650.0 0.0106403 0.00461498 1.60244e-05
275 1 0.000206666 2650.0 0.0110848 0.00460332 1.43037e-05
276 1 0.000277778 2650.0 -6.23851e-06 0.00508854 4.31117e-06
277 1 0.000242222 2650.0 0.000457264 0.0050951 -7.90582e-06
278 1 0.000277778 2650.0 0.000917956 0.00506315 1.80881e-05
279 1 0.0001355556 2650.0 0.00140448 0.00506391 -1.85439e-05
280 1 0.0001 2650.0 0.00184111 0.00507623 8.21795e-06
281 1 0.0001 2650.0 0.00230783 0.00508508 1.2475e-05
282 1 0.000206666 2650.0 0.00276258 0.00507935 1.74837e-05
283 1 0.000206666 2650.0 0.00322514 0.00508143 -1.39621e-05
284 1 0.0001355556 2650.0 0.00369807 0.00509812 3.19498e-06
285 1 0.0001355556 2650.0 0.00414223 0.00509389 9.87716e-06
286 1 0.0001711112 2650.0 0.00460788 0.00508505 3.04944e-06
287 1 0.0001355556 2650.0 0.0050772 0.00506892 1.78002e-06
288 1 0.0001711112 2650.0 0.00556094 0.00509254 7.6946e-06
289 1 0.0001 2650.0 0.00601537 0.00506877 -9.47732e-06
290 1 0.0001355556 2650.0 0.00647189 0.00507131 4.54031e-06
291 1 0.000242222 2650.0 0.00692079 0.00509272 -4.37835e-06
292 1 0.000242222 2650.0 0.0074017 0.00506997 -2.91076e-06
293 1 0.0001 2650.0 0.00784602 0.00507548 1.61692e-05
294 1 0.0001355556 2650.0 0.00832767 0.00507748 1.4524e-05
295 1 0.0001355556 2650.0 0.00876974 0.00506764 -1.23137e-05
296 1 0.0001711112 2650.0 0.00923876 0.00508526 1.523e-05
297 1 0.0001711112 2650.0 0.00969137 0.00509912 -1.94448e-07
298 1 0.000206666 2650.0 0.0101467 0.00507049 -4.65762e-06
299 1 0.000242222 2650.0 0.0106291 0.00508118 -9.58148e-06
300 1 0.0001 2650.0 0.01108 0.00508398 -1.04912e-05
301 1 0.000206666 2650.0 1.1297e-05 0.00554362 1.15711e-05
302 1 0.000242222 2650.0 0.000456781 0.00556119 1.85287e-06
303 1 0.000348888 2650.0 0.000918054 0.0055497 -6.87148e-06
304 1 0.0001711112 2650.0 0.00137611 0.00555223 1.46541e-05
305 1 0.000242222 2650.0 0.00183386 0.0055497 1.46048e-05
306 1 0.000384444 2650.0 0.00230041 0.00556015 -3.51764e-07
307 1 0.0001711112 2650.0 0.0027567 0.00555991 -1.66873e-05
308 1 0.0001355556 2650.0 0.00324719 0.00555194 -1.86701e-05
309 1 0.000206666 2650.0 0.00368533 0.00554643 -1.69091e-05
310 1 0.000242222 2650.0 0.00414776 0.00555549 -1.10068e-05
311 1 0.0001711112 2650.0 0.0046214 0.0055551 1.67792e-05
312 1 0.0001711112 2650.0 0.00506341 0.00555394 -1.35735e-06
313 1 0.0001 2650.0 0.00556229 0.00553148 -1.33355e-05
314 1 0.0001 2650.0 0.00599209 0.00553735 8.9169e-07
315 1 0.0001355556 2650.0 0.00648581 0.00555814 -1.34479e-06
316 1 0.000242222 2650.0 0.00693259 0.00555129 1.00746e-06
317 1 0.0001355556 2650.0 0.00738992 0.0055465 8.82724e-06
318 1 0.0001711112 2650.0 0.00784836 0.00553387 1.39663e-05
319 1 0.000242222 2650.0 0.0083097 0.00554046 1.05058e-05
320 1 0.0001 2650.0 0.0087849 0.00555308 -1.1044e-05
321 1 0.0001711112 2650.0 0.00925863 0.00552648 -1.18169e-05
322 1 0.0001 2650.0 0.00969724 0.00552855 1.60461e-05
323 1 0.0001355556 2650.0 0.0101479 0.00553367 6.21267e-06
324 1 0.000242222 2650.0 0.0106388 0.00552643 -1.71642e-05
325 1 0.0001711112 2650.0 0.011099 0.00554053 8.16584e-06
326 1 0.0001355556 2650.0 -8.49116e-06 0.00599002 -2.03011e-06
327 1 0.0001355556 2650.0 0.000475311 0.00601593 -3.99138e-06
328 1 0.0001711112 2650.0 0.000935933 0.006 -1.43708e-05
329 1 0.0001711112 2650.0 0.0013987 0.00600855 2.82864e-06
330 1 0.0001711112 2650.0 0.00183654 0.00602262 1.61819e-05
331 1 0.0001355556 2650.0 0.00230789 0.00598836 9.10499e-06
332 1 0.0001711112 2650.0 0.00278525 0.00601117 6.57617e-07
333 1 0.000277778 2650.0 0.00324897 0.00600399 3.80407e-06
334 1 0.0001711112 2650.0 0.00371126 0.00599619 8.85076e-06
335 1 0.0001355556 2650.0 0.00416969 0.00601768 -4.77661e-06
336 1 0.000277778 2650.0 0.00462672 0.00602192 -6.88698e-06
337 1 0.000242222 2650.0 0.0050761 0.00599612 3.05716e-06
338 1 0.0001 2650.0 0.00555548 0.00600723 6.56611e-06
339 1 0.0001 2650.0 0.00602434 0.00600577 1.04571e-05
340 1 0.000242222 2650.0 0.00645052 0.00600871 1.52921e-05
341 1 0.0001355556 2650.0 0.00694293 0.00601182 1.52451e-05
342 1 0.000206666 2650.0 0.00740718 0.00601264 4.25863e-06
343 1 0.0001 2650.0 0.00783565 0.00600756 1.77324e-05
344 1 0.0001711112 2650.0 0.00832885 0.00598798 -3.41802e-06
345 1 0.0001711112 2650.0 0.00878737 0.00601831 -7.39691e-06
346 1 0.0001355556 2650.0 0.00924435 0.00600643 1.35679e-06
347 1 0.0001711112 2650.0 0.00971213 0.00600223 -1.86305e-05
348 1 0.0001711112 2650.0 0.010176 0.0059885 -6.0727e-06
349 1 0.000206666 2650.0 0.0106221 0.00599111 1.20662e-05
350 1 0.000277778 2650.0 0.0110878 0.00600801 -2.61974e-06
351 1 0.0001711112 2650.0 7.04863e-06 0.00646913 -1.75498e-05
352 1 0.0001711112 2650.0 0.000455253 0.00646952 1.44573e-05
353 1 0.0001711112 2650.0 0.000929853 0.00648021 -1.03167e-05
354 1 0.0001 2650.0 0.00138195 0.006457 1.52359e-05
355 1 0.000277778 2650.0 0.00186025 0.00647054 1.70312e-05
356 1 0.0001355556 2650.0 0.00229432 0.00645217 7.57207e-06
357 1 0.000206666 2650.0 0.00276313 0.00647759 -1.03171e-05
358 1 0.000277778 2650.0 0.0032229 0.00647022 9.01729e-06
359 1 0.0001711112 2650.0 0.00370934 0.00645665 5.6626e-06
360 1 0.000242222 2650.0 0.0041489 0.0064821 -1.14071e-05
361 1 0.0001711112 2650.0 0.00462297 0.00647795 -1.04233e-05
362 1 0.000206666 2650.0 0.00506335 0.00645486 1.48328e-05
363 1 0.000206666 2650.0 0.00554862 0.00648583 -1.59193e-05
364 1 0.000206666 2650.0 0.00599956 0.00648513 1.23863e-05
365 1 0.000242222 2650.0 0.00647921 0.00645009 -1.75544e-05
366 1 0.0001355556 2650.0 0.00692285 0.00644943 1.503e-05
367 1 0.000277778 2650.0 0.00738333 0.00645102 -4.55842e-07
368 1 0.0001355556 2650.0 0.00786606 0.00647097 -4.77823e-06
369 1 0.0001355556 2650.0 0.0083333 0.00646489 1.74728e-05
370 1 0.0001 2650.0 0.00877466 0.00647345 4.54064e-06
371 1 0.0001711112 2650.0 0.00923639 0.00645521 3.54623e-06
372 1 0.0001 2650.0 0.0096929 0.00645119 -9.00932e-06
373 1 0.000206666 2650.0 0.0101712 0.00646634 -9.97714e-06
374 1 0.0001711112 2650.0 0.0106211 0.00648606 1.07976e-05
375 1 0.0001355556 2650.0 0.0110847 0.00645638 -1.26516e-05
376 1 0.0001355556 2650.0 -1.03366e-05 0.00693093 1.01358e-05
377 1 0.000206666 2650.0 0.000449844 0.00692923 -1.8178e-05
378 1 0.0001711112 2650.0 0.000905559 0.00691582 -8.03308e-06
379 1 0.000313334 2650.0 0.00139558 0.00693849 1.12369e-05
380 1 0.0001 2650.0 0.00185725 0.00694543 -4.46651e-06
381 1 0.0001355556 2650.0 0.00231219 0.00693447 1.00336e-05
382 1 0.0001711112 2650.0 0.0027803 0.00691995 1.62969e-05
383 1 0.000242222 2650.0 0.00323696 0.00691551 -2.0427e-07
384 1 0.0001711112 2650.0 0.00370263 0.00693418 -9.43123e-06
385 1 0.0001355556 2650.0 0.0041427 0.00692006 1.36203e-05
386 1 0.0001 2650.0 0.00461994 0.00691646 1.59276e-05
387 1 0.0001711112 2650.0 0.00507836 0.00691277 3.84007e-06
388 1 0.0001711112 2650.0 0.00555952 0.00691337 1.66657e-05
389 1 0.0001355556 2650.0 0.00600867 0.00693161 3.17685e-06
390 1 0.000206666 2650.0 0.00644987 0.00692921 1.0648e-05
391 1 0.000242222 2650.0 0.00694526 0.00692976 5.44396e-06
392 1 0.000277778 2650.0 0.00737477 0.00693596 -6.26276e-06
393 1 0.0001711112 2650.0 0.00786874 0.0069253 -4.37661e-06
394 1 0.0001355556 2650.0 0.00831711 0.0069384 -9.48741e-06
395 1 0.0001 2650.0 0.00876353 0.00694463 -1.44381e-05
396 1 0.000242222 2650.0 0.00925467 0.0069255 6.79481e-07
397 1 0.000206666 2650.0 0.00970643 0.00692629 -1.07454e-05
398 1 0.000206666 2650.0 0.0101744 0.00694486 8.33588e-06
399 1 0.000206666 2650.0 0.0106404 0.00694871 9.82905e-06
400 1 0.0001 2650.0 0.0110989 0.00692879 1.41423e-05
401 1 0.000206666 2650.0 2.62628e-06 0.00738151 -1.04213e-05
402 1 0.0001711112 2650.0 0.000476518 0.00739243 3.14123e-06
403 1 0.0001 2650.0 0.000911967 0.00737954 7.10757e-06
404 1 0.000242222 2650.0 0.00139495 0.00740602 -1.34485e-05
405 1 0.0001711112 2650.0 0.00186276 0.00738677 -3.6986e-06
406 1 0.0001 2650.0 0.00232855 0.0073754 9.40582e-06
407 1 0.000277778 2650.0 0.00277607 0.00740954 2.64932e-06
408 1 0.0001355556 2650.0 0.00323267 0.00739563 1.18548e-05
409 1 0.0001355556 2650.0 0.00369526 0.00739328 1.32243e-05
410 1 0.0001355556 2650.0 0.0041547 0.00738308 -8.92647e-06
411 1 0.0001 2650.0 0.0046211 0.00740824 2.92238e-06
412 1 0.0001711112 2650.0 0.00509633 0.00740669 -1.21322e-05
413 1 0.000206666 2650.0 0.00553168 0.00738356 -1.07232e-05
414 1 0.000242222 2650.0 0.0060114 0.00740861 1.67125e-05
415 1 0.000348888 2650.0 0.00646263 0.00740928 1.09862e-05
416 1 0.0001355556 2650.0 0.00692234 0.00737363 1.03251e-05
417 1 0.0001355556 2650.0 0.00738656 0.00738089 1.73434e-05
418 1 0.000348888 2650.0 0.00786874 0.00738783 1.32113e-05
419 1 0.000242222 2650.0 0.00832168 0.00740354 1.8056e-05
420 1 0.0001711112 2650.0 0.00878699 0.00740572 -8.38272e-06
421 1 0.000206666 2650.0 0.00923216 0.00739142 1.64438e-05
422 1 0.0001711112 2650.0 0.00971716 0.00740404 -1.87247e-05
423 1 0.0001355556 2650.0 0.0101813 0.00739189 7.20592e-06
424 1 0.0001 2650.0 0.0106248 0.00737798 1.28286e-05
425 1 0.000242222 2650.0 0.011087 0.00737359 1.72841e-05
426 1 0.0001711112 2650.0 9.25005e-07 0.00786475 1.90551e-06
427 1 0.000242222 2650.0 0.000471353 0.00783554 1.01086e-05
428 1 0.0001 2650.0 0.000908198 0.00785562 6.70988e-06
429 1 0.0001711112 2650.0 0.00140148 0.00785589 9.45517e-06
430 1 0.0001711112 2650.0 0.0018498 0.00786305 3.51972e-06
431 1 0.0001355556 2650.0 0.00230886 0.00786208 1.57911e-05
432 1 0.000206666 2650.0 0.00277911 0.00787024 -3.4454e-06
433 1 0.0001711112 2650.0 0.00323668 0.00783794 4.03811e-06
434 1 0.0001711112 2650.0 0.00371358 0.00786109 9.63855e-06
435 1 0.0001711112 2650.0 0.0041423 0.0078624 6.56997e-06
436 1 0.0001 2650.0 0.00462768 0.00785746 1.25952e-05
437 1 0.000242222 2650.0 0.00508942 0.00783963 -1.74862e-05
438 1 0.0001711112 2650.0 0.00554845 0.00787259 1.86025e-05
439 1 0.0001711112 2650.0 0.00601396 0.00784127 1.1066e-05
440 1 0.000277778 2650.0 0.00647811 0.00786304 -1.09648e-05
441 1 0.000277778 2650.0 0.00691887 0.00787027 -1.59981e-05
442 1 0.0001711112 2650.0 0.00738314 0.00787145 1.44911e-05
443 1 0.0001 2650.0 0.00786046 0.00785044 -1.46783e-05
444 1 0.0001355556 2650.0 0.0083006 0.00785289 -7.97442e-06
445 1 0.0001355556 2650.0 0.00879069 0.00784719 1.74534e-05
446 1 0.000242222 2650.0 0.00925156 0.00784234 -5.12801e-06
447 1 0.000206666 2650.0 0.0096995 0.00785135 -1.01019e-05
448 1 0.000277778 2650.0 0.0101789 0.00784686 1.28683e-05
449 1 0.0001355556 2650.0 0.0106124 0.00786754 1.36927e-05
450 1 0.000277778 2650.0 0.0110942 0.00784047 -4.25153e-06
451 1 0.0001 2650.0 -1.34323e-05 0.00830018 -4.30884e-06
452 1 0.0001355556 2650.0 0.000468119 0.00829976 -1.42558e-05
453 1 0.0001711112 2650.0 0.000941107 0.00833315 8.61048e-06
454 1 0.000242222 2650.0 0.00140401 0.00830665 -2.23245e-06
455 1 0.0001711112 2650.0 0.00186263 0.00832492 1.67167e-05
456 1 0.000206666 2650.0 0.00230076 0.00831318 -1.67601e-05
457 1 0.0001711112 2650.0 0.00277126 0.00833353 5.5504e-06
458 1 0.000242222 2650.0 0.0032291 0.00832113 -1.69453e-05
459 1 0.000242222 2650.0 0.00368154 0.0083293 1.39229e-05
460 1 0.0001711112 2650.0 0.00414021 0.00832916 1.1512e-05
461 1 0.0001711112 2650.0 0.0046041 0.00832364 7.9826e-06
462 1 0.0001711112 2650.0 0.00509336 0.00831419 1.23611e-05
463 1 0.0001711112 2650.0 0.00554898 0.00832713 -8.95022e-06
464 1 0.000242222 2650.0 0.00602359 0.00833135 6.43968e-06
465 1 0.0001711112 2650.0 0.00647833 0.00831937 -1.13326e-05
466 1 0.000277778 2650.0 0.00693637 0.00832318 1.69351e-05
467 1 0.0001355556 2650.0 0.00738608 0.00831877 -8.8161e-06
468 1 0.0001 2650.0 0.00785781 0.00831564 1.03036e-05
469 1 0.000206666 2650.0 0.00832764 0.008311 1.80288e-05
470 1 0.000242222 2650.0 0.00878353 0.00831319 -1.58721e-05
471 1 0.0001711112 2650.0 0.00923291 0.00830498 8.35926e-06
472 1 0.0001711112 2650.0 0.00969346 0.0083007 -5.92913e-06
473 1 0.000206666 2650.0 0.0101539 0.00831899 1.31238e-05
474 1 0.000206666 2650.0 0.0106345 0.00833158 -1.0098e-05
475 1 0.000242222 2650.0 0.0110929 0.00830092 5.16977e-06
476 1 0.0001 2650.0 -1.39323e-05 0.00878944 -1.22213e-05
477 1 0.000242222 2650.0 0.000464219 0.00879532 1.79345e-05
478 1 0.0001355556 2650.0 0.000931496 0.00877426 -2.73789e-06
479 1 0.000206666 2650.0 0.00137295 0.00879416 5.29423e-06
480 1 0.0001355556 2650.0 0.00184687 0.00876348 2.95217e-06
481 1 0.0001711112 2650.0 0.00229571 0.0087693 -1.42937e-05
482 1 0.0001355556 2650.0 0.00275688 0.00878908 -1.09985e-05
483 1 0.000242222 2650.0 0.00322366 0.00876294 2.25256e-06
484 1 0.000206666 2650.0 0.00367922 0.00879074 -7.02929e-07
485 1 0.000206666 2650.0 0.00417527 0.00876034 4.0858e-07
486 1 0.000206666 2650.0 0.00460742 0.00877248 1.73741e-05
487 1 0.0001711112 2650.0 0.00508307 0.00876934 -2.28431e-06
488 1 0.0001711112 2650.0 0.00555643 0.00877898 -9.55327e-07
489 1 0.000206666 2650.0 0.00601481 0.00876656 1.41501e-05
490 1 0.0001711112 2650.0 0.00645166 0.00878134 -2.85756e-06
491 1 0.0001355556 2650.0 0.00694679 0.00876715 -7.43418e-06
492 1 0.0001 2650.0 0.00737473 0.00876231 2.17813e-06
493 1 0.000242222 2650.0 0.00787152 0.0087772 -6.95683e-06
494 1 0.0001355556 2650.0 0.00830799 0.00877044 8.84543e-07
495 1 0.0001355556 2650.0 0.00878911 0.00877419 6.08616e-06
496 1 0.0001711112 2650.0 0.00924321 0.00879338 -1.1397e-05
497 1 0.0001355556 2650.0 0.0096858 0.00878212 1.0101e-06
498 1 0.0001 2650.0 0.0101685 0.00878095 -1.73568e-05
499 1 0.000313334 2650.0 0.0106127 0.00877455 -6.34348e-06
500 1 0.0001 2650.0 0.0110692 0.00879398 -1.78015e-05
501 1 0.000206666 2650.0 -2.83143e-06 0.00924231 -6.47378e-06
502 1 0.0001355556 2650.0 0.000445494 0.00923495 -1.38427e-05
503 1 0.000313334 2650.0 0.000928757 0.00924527 -6.75071e-06
504 1 0.0001355556 2650.0 0.00140248 0.00924711 4.10615e-06
505 1 0.000206666 2650.0 0.00183724 0.00922887 4.29435e-07
506 1 0.0001 2650.0 0.00230769 0.00922363 -1.83296e-07